# vtk DataFile Version 4.1
vtk output
ASCII
DATASET UNSTRUCTURED_GRID

POINTS	48051	float
0	0	0	
2.5	0	0	
5	0	0	
7.5	0	0	
10	0	0	
12.5	0	0	
15	0	0	
17.5	0	0	
20	0	0	
22.5	0	0	
25	0	0	
27.5	0	0	
30	0	0	
32.5	0	0	
35	0	0	
37.5	0	0	
40	0	0	
42.5	0	0	
45	0	0	
47.5	0	0	
50	0	0	
52.5	0	0	
55	0	0	
57.5	0	0	
60	0	0	
62.5	0	0	
65	0	0	
67.5	0	0	
70	0	0	
72.5	0	0	
75	0	0	
77.5	0	0	
80	0	0	
82.5	0	0	
85	0	0	
87.5	0	0	
90	0	0	
92.5	0	0	
95	0	0	
97.5	0	0	
100	0	0	
102.5	0	0	
105	0	0	
107.5	0	0	
110	0	0	
112.5	0	0	
115	0	0	
117.5	0	0	
120	0	0	
122.5	0	0	
125	0	0	
127.5	0	0	
130	0	0	
132.5	0	0	
135	0	0	
137.5	0	0	
140	0	0	
142.5	0	0	
145	0	0	
147.5	0	0	
150	0	0	
152.5	0	0	
155	0	0	
157.5	0	0	
160	0	0	
162.5	0	0	
165	0	0	
167.5	0	0	
170	0	0	
172.5	0	0	
175	0	0	
177.5	0	0	
180	0	0	
182.5	0	0	
185	0	0	
187.5	0	0	
190	0	0	
192.5	0	0	
195	0	0	
197.5	0	0	
200	0	0	
202.5	0	0	
205	0	0	
207.5	0	0	
210	0	0	
212.5	0	0	
215	0	0	
217.5	0	0	
220	0	0	
222.5	0	0	
225	0	0	
227.5	0	0	
230	0	0	
232.5	0	0	
235	0	0	
237.5	0	0	
240	0	0	
242.5	0	0	
245	0	0	
247.5	0	0	
250	0	0	
0	2.5	0	
2.5	2.5	0	
5	2.5	0	
7.5	2.5	0	
10	2.5	0	
12.5	2.5	0	
15	2.5	0	
17.5	2.5	0	
20	2.5	0	
22.5	2.5	0	
25	2.5	0	
27.5	2.5	0	
30	2.5	0	
32.5	2.5	0	
35	2.5	0	
37.5	2.5	0	
40	2.5	0	
42.5	2.5	0	
45	2.5	0	
47.5	2.5	0	
50	2.5	0	
52.5	2.5	0	
55	2.5	0	
57.5	2.5	0	
60	2.5	0	
62.5	2.5	0	
65	2.5	0	
67.5	2.5	0	
70	2.5	0	
72.5	2.5	0	
75	2.5	0	
77.5	2.5	0	
80	2.5	0	
82.5	2.5	0	
85	2.5	0	
87.5	2.5	0	
90	2.5	0	
92.5	2.5	0	
95	2.5	0	
97.5	2.5	0	
100	2.5	0	
102.5	2.5	0	
105	2.5	0	
107.5	2.5	0	
110	2.5	0	
112.5	2.5	0	
115	2.5	0	
117.5	2.5	0	
120	2.5	0	
122.5	2.5	0	
125	2.5	0	
127.5	2.5	0	
130	2.5	0	
132.5	2.5	0	
135	2.5	0	
137.5	2.5	0	
140	2.5	0	
142.5	2.5	0	
145	2.5	0	
147.5	2.5	0	
150	2.5	0	
152.5	2.5	0	
155	2.5	0	
157.5	2.5	0	
160	2.5	0	
162.5	2.5	0	
165	2.5	0	
167.5	2.5	0	
170	2.5	0	
172.5	2.5	0	
175	2.5	0	
177.5	2.5	0	
180	2.5	0	
182.5	2.5	0	
185	2.5	0	
187.5	2.5	0	
190	2.5	0	
192.5	2.5	0	
195	2.5	0	
197.5	2.5	0	
200	2.5	0	
202.5	2.5	0	
205	2.5	0	
207.5	2.5	0	
210	2.5	0	
212.5	2.5	0	
215	2.5	0	
217.5	2.5	0	
220	2.5	0	
222.5	2.5	0	
225	2.5	0	
227.5	2.5	0	
230	2.5	0	
232.5	2.5	0	
235	2.5	0	
237.5	2.5	0	
240	2.5	0	
242.5	2.5	0	
245	2.5	0	
247.5	2.5	0	
250	2.5	0	
0	5	0	
2.5	5	0	
5	5	0	
7.5	5	0	
10	5	0	
12.5	5	0	
15	5	0	
17.5	5	0	
20	5	0	
22.5	5	0	
25	5	0	
27.5	5	0	
30	5	0	
32.5	5	0	
35	5	0	
37.5	5	0	
40	5	0	
42.5	5	0	
45	5	0	
47.5	5	0	
50	5	0	
52.5	5	0	
55	5	0	
57.5	5	0	
60	5	0	
62.5	5	0	
65	5	0	
67.5	5	0	
70	5	0	
72.5	5	0	
75	5	0	
77.5	5	0	
80	5	0	
82.5	5	0	
85	5	0	
87.5	5	0	
90	5	0	
92.5	5	0	
95	5	0	
97.5	5	0	
100	5	0	
102.5	5	0	
105	5	0	
107.5	5	0	
110	5	0	
112.5	5	0	
115	5	0	
117.5	5	0	
120	5	0	
122.5	5	0	
125	5	0	
127.5	5	0	
130	5	0	
132.5	5	0	
135	5	0	
137.5	5	0	
140	5	0	
142.5	5	0	
145	5	0	
147.5	5	0	
150	5	0	
152.5	5	0	
155	5	0	
157.5	5	0	
160	5	0	
162.5	5	0	
165	5	0	
167.5	5	0	
170	5	0	
172.5	5	0	
175	5	0	
177.5	5	0	
180	5	0	
182.5	5	0	
185	5	0	
187.5	5	0	
190	5	0	
192.5	5	0	
195	5	0	
197.5	5	0	
200	5	0	
202.5	5	0	
205	5	0	
207.5	5	0	
210	5	0	
212.5	5	0	
215	5	0	
217.5	5	0	
220	5	0	
222.5	5	0	
225	5	0	
227.5	5	0	
230	5	0	
232.5	5	0	
235	5	0	
237.5	5	0	
240	5	0	
242.5	5	0	
245	5	0	
247.5	5	0	
250	5	0	
0	7.5	0	
2.5	7.5	0	
5	7.5	0	
7.5	7.5	0	
10	7.5	0	
12.5	7.5	0	
15	7.5	0	
17.5	7.5	0	
20	7.5	0	
22.5	7.5	0	
25	7.5	0	
27.5	7.5	0	
30	7.5	0	
32.5	7.5	0	
35	7.5	0	
37.5	7.5	0	
40	7.5	0	
42.5	7.5	0	
45	7.5	0	
47.5	7.5	0	
50	7.5	0	
52.5	7.5	0	
55	7.5	0	
57.5	7.5	0	
60	7.5	0	
62.5	7.5	0	
65	7.5	0	
67.5	7.5	0	
70	7.5	0	
72.5	7.5	0	
75	7.5	0	
77.5	7.5	0	
80	7.5	0	
82.5	7.5	0	
85	7.5	0	
87.5	7.5	0	
90	7.5	0	
92.5	7.5	0	
95	7.5	0	
97.5	7.5	0	
100	7.5	0	
102.5	7.5	0	
105	7.5	0	
107.5	7.5	0	
110	7.5	0	
112.5	7.5	0	
115	7.5	0	
117.5	7.5	0	
120	7.5	0	
122.5	7.5	0	
125	7.5	0	
127.5	7.5	0	
130	7.5	0	
132.5	7.5	0	
135	7.5	0	
137.5	7.5	0	
140	7.5	0	
142.5	7.5	0	
145	7.5	0	
147.5	7.5	0	
150	7.5	0	
152.5	7.5	0	
155	7.5	0	
157.5	7.5	0	
160	7.5	0	
162.5	7.5	0	
165	7.5	0	
167.5	7.5	0	
170	7.5	0	
172.5	7.5	0	
175	7.5	0	
177.5	7.5	0	
180	7.5	0	
182.5	7.5	0	
185	7.5	0	
187.5	7.5	0	
190	7.5	0	
192.5	7.5	0	
195	7.5	0	
197.5	7.5	0	
200	7.5	0	
202.5	7.5	0	
205	7.5	0	
207.5	7.5	0	
210	7.5	0	
212.5	7.5	0	
215	7.5	0	
217.5	7.5	0	
220	7.5	0	
222.5	7.5	0	
225	7.5	0	
227.5	7.5	0	
230	7.5	0	
232.5	7.5	0	
235	7.5	0	
237.5	7.5	0	
240	7.5	0	
242.5	7.5	0	
245	7.5	0	
247.5	7.5	0	
250	7.5	0	
0	10	0	
2.5	10	0	
5	10	0	
7.5	10	0	
10	10	0	
12.5	10	0	
15	10	0	
17.5	10	0	
20	10	0	
22.5	10	0	
25	10	0	
27.5	10	0	
30	10	0	
32.5	10	0	
35	10	0	
37.5	10	0	
40	10	0	
42.5	10	0	
45	10	0	
47.5	10	0	
50	10	0	
52.5	10	0	
55	10	0	
57.5	10	0	
60	10	0	
62.5	10	0	
65	10	0	
67.5	10	0	
70	10	0	
72.5	10	0	
75	10	0	
77.5	10	0	
80	10	0	
82.5	10	0	
85	10	0	
87.5	10	0	
90	10	0	
92.5	10	0	
95	10	0	
97.5	10	0	
100	10	0	
102.5	10	0	
105	10	0	
107.5	10	0	
110	10	0	
112.5	10	0	
115	10	0	
117.5	10	0	
120	10	0	
122.5	10	0	
125	10	0	
127.5	10	0	
130	10	0	
132.5	10	0	
135	10	0	
137.5	10	0	
140	10	0	
142.5	10	0	
145	10	0	
147.5	10	0	
150	10	0	
152.5	10	0	
155	10	0	
157.5	10	0	
160	10	0	
162.5	10	0	
165	10	0	
167.5	10	0	
170	10	0	
172.5	10	0	
175	10	0	
177.5	10	0	
180	10	0	
182.5	10	0	
185	10	0	
187.5	10	0	
190	10	0	
192.5	10	0	
195	10	0	
197.5	10	0	
200	10	0	
202.5	10	0	
205	10	0	
207.5	10	0	
210	10	0	
212.5	10	0	
215	10	0	
217.5	10	0	
220	10	0	
222.5	10	0	
225	10	0	
227.5	10	0	
230	10	0	
232.5	10	0	
235	10	0	
237.5	10	0	
240	10	0	
242.5	10	0	
245	10	0	
247.5	10	0	
250	10	0	
0	12.5	0	
2.5	12.5	0	
5	12.5	0	
7.5	12.5	0	
10	12.5	0	
12.5	12.5	0	
15	12.5	0	
17.5	12.5	0	
20	12.5	0	
22.5	12.5	0	
25	12.5	0	
27.5	12.5	0	
30	12.5	0	
32.5	12.5	0	
35	12.5	0	
37.5	12.5	0	
40	12.5	0	
42.5	12.5	0	
45	12.5	0	
47.5	12.5	0	
50	12.5	0	
52.5	12.5	0	
55	12.5	0	
57.5	12.5	0	
60	12.5	0	
62.5	12.5	0	
65	12.5	0	
67.5	12.5	0	
70	12.5	0	
72.5	12.5	0	
75	12.5	0	
77.5	12.5	0	
80	12.5	0	
82.5	12.5	0	
85	12.5	0	
87.5	12.5	0	
90	12.5	0	
92.5	12.5	0	
95	12.5	0	
97.5	12.5	0	
100	12.5	0	
102.5	12.5	0	
105	12.5	0	
107.5	12.5	0	
110	12.5	0	
112.5	12.5	0	
115	12.5	0	
117.5	12.5	0	
120	12.5	0	
122.5	12.5	0	
125	12.5	0	
127.5	12.5	0	
130	12.5	0	
132.5	12.5	0	
135	12.5	0	
137.5	12.5	0	
140	12.5	0	
142.5	12.5	0	
145	12.5	0	
147.5	12.5	0	
150	12.5	0	
152.5	12.5	0	
155	12.5	0	
157.5	12.5	0	
160	12.5	0	
162.5	12.5	0	
165	12.5	0	
167.5	12.5	0	
170	12.5	0	
172.5	12.5	0	
175	12.5	0	
177.5	12.5	0	
180	12.5	0	
182.5	12.5	0	
185	12.5	0	
187.5	12.5	0	
190	12.5	0	
192.5	12.5	0	
195	12.5	0	
197.5	12.5	0	
200	12.5	0	
202.5	12.5	0	
205	12.5	0	
207.5	12.5	0	
210	12.5	0	
212.5	12.5	0	
215	12.5	0	
217.5	12.5	0	
220	12.5	0	
222.5	12.5	0	
225	12.5	0	
227.5	12.5	0	
230	12.5	0	
232.5	12.5	0	
235	12.5	0	
237.5	12.5	0	
240	12.5	0	
242.5	12.5	0	
245	12.5	0	
247.5	12.5	0	
250	12.5	0	
0	15	0	
2.5	15	0	
5	15	0	
7.5	15	0	
10	15	0	
12.5	15	0	
15	15	0	
17.5	15	0	
20	15	0	
22.5	15	0	
25	15	0	
27.5	15	0	
30	15	0	
32.5	15	0	
35	15	0	
37.5	15	0	
40	15	0	
42.5	15	0	
45	15	0	
47.5	15	0	
50	15	0	
52.5	15	0	
55	15	0	
57.5	15	0	
60	15	0	
62.5	15	0	
65	15	0	
67.5	15	0	
70	15	0	
72.5	15	0	
75	15	0	
77.5	15	0	
80	15	0	
82.5	15	0	
85	15	0	
87.5	15	0	
90	15	0	
92.5	15	0	
95	15	0	
97.5	15	0	
100	15	0	
102.5	15	0	
105	15	0	
107.5	15	0	
110	15	0	
112.5	15	0	
115	15	0	
117.5	15	0	
120	15	0	
122.5	15	0	
125	15	0	
127.5	15	0	
130	15	0	
132.5	15	0	
135	15	0	
137.5	15	0	
140	15	0	
142.5	15	0	
145	15	0	
147.5	15	0	
150	15	0	
152.5	15	0	
155	15	0	
157.5	15	0	
160	15	0	
162.5	15	0	
165	15	0	
167.5	15	0	
170	15	0	
172.5	15	0	
175	15	0	
177.5	15	0	
180	15	0	
182.5	15	0	
185	15	0	
187.5	15	0	
190	15	0	
192.5	15	0	
195	15	0	
197.5	15	0	
200	15	0	
202.5	15	0	
205	15	0	
207.5	15	0	
210	15	0	
212.5	15	0	
215	15	0	
217.5	15	0	
220	15	0	
222.5	15	0	
225	15	0	
227.5	15	0	
230	15	0	
232.5	15	0	
235	15	0	
237.5	15	0	
240	15	0	
242.5	15	0	
245	15	0	
247.5	15	0	
250	15	0	
0	17.5	0	
2.5	17.5	0	
5	17.5	0	
7.5	17.5	0	
10	17.5	0	
12.5	17.5	0	
15	17.5	0	
17.5	17.5	0	
20	17.5	0	
22.5	17.5	0	
25	17.5	0	
27.5	17.5	0	
30	17.5	0	
32.5	17.5	0	
35	17.5	0	
37.5	17.5	0	
40	17.5	0	
42.5	17.5	0	
45	17.5	0	
47.5	17.5	0	
50	17.5	0	
52.5	17.5	0	
55	17.5	0	
57.5	17.5	0	
60	17.5	0	
62.5	17.5	0	
65	17.5	0	
67.5	17.5	0	
70	17.5	0	
72.5	17.5	0	
75	17.5	0	
77.5	17.5	0	
80	17.5	0	
82.5	17.5	0	
85	17.5	0	
87.5	17.5	0	
90	17.5	0	
92.5	17.5	0	
95	17.5	0	
97.5	17.5	0	
100	17.5	0	
102.5	17.5	0	
105	17.5	0	
107.5	17.5	0	
110	17.5	0	
112.5	17.5	0	
115	17.5	0	
117.5	17.5	0	
120	17.5	0	
122.5	17.5	0	
125	17.5	0	
127.5	17.5	0	
130	17.5	0	
132.5	17.5	0	
135	17.5	0	
137.5	17.5	0	
140	17.5	0	
142.5	17.5	0	
145	17.5	0	
147.5	17.5	0	
150	17.5	0	
152.5	17.5	0	
155	17.5	0	
157.5	17.5	0	
160	17.5	0	
162.5	17.5	0	
165	17.5	0	
167.5	17.5	0	
170	17.5	0	
172.5	17.5	0	
175	17.5	0	
177.5	17.5	0	
180	17.5	0	
182.5	17.5	0	
185	17.5	0	
187.5	17.5	0	
190	17.5	0	
192.5	17.5	0	
195	17.5	0	
197.5	17.5	0	
200	17.5	0	
202.5	17.5	0	
205	17.5	0	
207.5	17.5	0	
210	17.5	0	
212.5	17.5	0	
215	17.5	0	
217.5	17.5	0	
220	17.5	0	
222.5	17.5	0	
225	17.5	0	
227.5	17.5	0	
230	17.5	0	
232.5	17.5	0	
235	17.5	0	
237.5	17.5	0	
240	17.5	0	
242.5	17.5	0	
245	17.5	0	
247.5	17.5	0	
250	17.5	0	
0	20	0	
2.5	20	0	
5	20	0	
7.5	20	0	
10	20	0	
12.5	20	0	
15	20	0	
17.5	20	0	
20	20	0	
22.5	20	0	
25	20	0	
27.5	20	0	
30	20	0	
32.5	20	0	
35	20	0	
37.5	20	0	
40	20	0	
42.5	20	0	
45	20	0	
47.5	20	0	
50	20	0	
52.5	20	0	
55	20	0	
57.5	20	0	
60	20	0	
62.5	20	0	
65	20	0	
67.5	20	0	
70	20	0	
72.5	20	0	
75	20	0	
77.5	20	0	
80	20	0	
82.5	20	0	
85	20	0	
87.5	20	0	
90	20	0	
92.5	20	0	
95	20	0	
97.5	20	0	
100	20	0	
102.5	20	0	
105	20	0	
107.5	20	0	
110	20	0	
112.5	20	0	
115	20	0	
117.5	20	0	
120	20	0	
122.5	20	0	
125	20	0	
127.5	20	0	
130	20	0	
132.5	20	0	
135	20	0	
137.5	20	0	
140	20	0	
142.5	20	0	
145	20	0	
147.5	20	0	
150	20	0	
152.5	20	0	
155	20	0	
157.5	20	0	
160	20	0	
162.5	20	0	
165	20	0	
167.5	20	0	
170	20	0	
172.5	20	0	
175	20	0	
177.5	20	0	
180	20	0	
182.5	20	0	
185	20	0	
187.5	20	0	
190	20	0	
192.5	20	0	
195	20	0	
197.5	20	0	
200	20	0	
202.5	20	0	
205	20	0	
207.5	20	0	
210	20	0	
212.5	20	0	
215	20	0	
217.5	20	0	
220	20	0	
222.5	20	0	
225	20	0	
227.5	20	0	
230	20	0	
[...]
CELL_DATA	10000
SCALARS Rho0 float
LOOKUP_TABLE default
0.778145
0.632566
0.734806
0.632521
0.778047
1e-10
5.21074e-09
1e-10
5.19058e-09
1e-10
0.000190529
1.59979e-06
1e-10
1.59483e-06
0.000190322
0.178129
0.201936
0.199835
0.201927
0.178112
1e-10
1e-10
1e-10
1e-10
1e-10
1e-10
1e-10
1e-10
1e-10
1e-10
1e-10
1e-10
1e-10
1e-10
1e-10
1e-10
1e-10
1e-10
1e-10
1e-10
1e-10
1e-10
1e-10
1e-10
1e-10
1e-10
1e-10
1e-10
1e-10
1e-10
1e-10
1e-10
1e-10
1e-10
1e-10
1e-10
1e-10
1e-10
1e-10
1e-10
1e-10
1e-10
1e-10
1e-10
1e-10
1e-10
1e-10
1e-10
1e-10
1e-10
1e-10
1e-10
1e-10
1e-10
1e-10
1e-10
1e-10
1e-10
1e-10
1e-10
0.178117
0.201931
0.199835
0.201936
0.178122
0.000190449
1.59647e-06
1e-10
1.59768e-06
0.000190351
1e-10
5.19866e-09
1e-10
5.18831e-09
1e-10
0.778103
0.632528
0.734808
0.632524
0.778069
0.649448
0.689108
0.639981
0.689036
0.649371
2.67322e-08
0.0394739
1.81412e-05
0.039417
2.66432e-08
0.000187149
0.0866713
1e-10
0.0866231
0.000186896
0.140246
0.185474
0.18459
0.185465
0.140233
1e-10
1e-10
1e-10
1e-10
1e-10
1e-10
1e-10
1e-10
1e-10
1e-10
1e-10
1e-10
1e-10
1e-10
1e-10
1e-10
1e-10
1e-10
1e-10
1e-10
1e-10
1e-10
1e-10
1e-10
1e-10
1e-10
1e-10
1e-10
1e-10
1e-10
1e-10
1e-10
1e-10
1e-10
1e-10
1e-10
1e-10
1e-10
1e-10
1e-10
1e-10
1e-10
1e-10
1e-10
1e-10
1e-10
1e-10
1e-10
1e-10
1e-10
1e-10
1e-10
1e-10
1e-10
1e-10
1e-10
1e-10
1e-10
1e-10
1e-10
0.140236
0.185468
0.18459
0.185471
0.140241
0.000186943
0.0866845
1e-10
0.0866889
0.00018689
2.67899e-08
0.0394609
1.81407e-05
0.0394486
2.66438e-08
0.649434
0.689112
0.639984
0.689054
0.649381
0.543144
0.727745
0.584683
0.727668
0.543066
0.0160327
1e-10
1e-10
1e-10
0.0160254
2.15019e-05
0.122498
1e-10
0.122485
2.1442e-05
0.115149
0.168101
0.178512
0.168093
0.115141
1e-10
1e-10
1e-10
1e-10
1e-10
1e-10
1e-10
1e-10
1e-10
1e-10
1e-10
1e-10
1e-10
1e-10
1e-10
1e-10
1e-10
1e-10
1e-10
1e-10
1e-10
1e-10
1e-10
1e-10
1e-10
1e-10
1e-10
1e-10
1e-10
1e-10
1e-10
1e-10
1e-10
1e-10
1e-10
1e-10
1e-10
1e-10
1e-10
1e-10
1e-10
1e-10
1e-10
1e-10
1e-10
1e-10
1e-10
1e-10
1e-10
1e-10
1e-10
1e-10
1e-10
1e-10
1e-10
1e-10
1e-10
1e-10
1e-10
1e-10
0.115142
0.168095
0.178511
0.168098
0.115145
2.14601e-05
0.122501
1e-10
0.122507
2.15318e-05
0.0160288
1e-10
1e-10
1e-10
0.0160319
0.543118
0.727767
0.584674
0.727688
0.54308
0.522868
0.711459
0.613779
0.711343
0.522824
1e-10
1e-10
1e-10
1e-10
1e-10
1e-10
0.204
1e-10
0.203985
1e-10
0.101089
0.121046
0.196171
0.121042
0.101089
1e-10
1e-10
1e-10
1e-10
1e-10
1e-10
1e-10
1e-10
1e-10
1e-10
1e-10
1e-10
1e-10
1e-10
1e-10
1e-10
1e-10
1e-10
1e-10
1e-10
1e-10
1e-10
1e-10
1e-10
1e-10
1e-10
1e-10
1e-10
1e-10
1e-10
1e-10
1e-10
1e-10
1e-10
1e-10
1e-10
1e-10
1e-10
1e-10
1e-10
1e-10
1e-10
1e-10
1e-10
1e-10
1e-10
1e-10
1e-10
1e-10
1e-10
1e-10
1e-10
1e-10
1e-10
1e-10
1e-10
1e-10
1e-10
1e-10
1e-10
0.101089
0.121041
0.196181
0.121044
0.101089
1e-10
0.204008
1e-10
0.204016
1e-10
1e-10
1e-10
1e-10
1e-10
1e-10
0.522866
0.711462
0.613782
0.711361
0.522834
0.492741
0.653085
0.644805
0.653002
0.492639
1e-10
0.280768
1e-10
0.28076
1e-10
1e-10
1e-10
0.252445
1e-10
1e-10
0.102871
0.11549
0.152219
0.115484
0.102871
1e-10
1e-10
1e-10
1e-10
1e-10
1e-10
1e-10
1e-10
1e-10
1e-10
1e-10
1e-10
1e-10
1e-10
1e-10
1e-10
1e-10
1e-10
1e-10
1e-10
1e-10
1e-10
1e-10
1e-10
1e-10
1e-10
1e-10
1e-10
1e-10
1e-10
1e-10
1e-10
1e-10
1e-10
1e-10
1e-10
1e-10
1e-10
1e-10
1e-10
1e-10
1e-10
1e-10
1e-10
1e-10
1e-10
1e-10
1e-10
1e-10
1e-10
1e-10
1e-10
1e-10
1e-10
1e-10
1e-10
1e-10
1e-10
1e-10
1e-10
0.102871
0.115491
0.152226
0.115495
0.102871
1e-10
1e-10
0.252457
1e-10
1e-10
1e-10
0.280782
1e-10
0.280792
1e-10
0.492691
0.653123
0.644816
0.652984
0.492687
0.48518
0.656587
0.653564
0.656443
0.485168
1e-10
1e-10
0.246773
1e-10
1e-10
1e-10
0.12917
0.216989
0.129172
1e-10
0.0800534
0.102106
0.14171
0.102106
0.08005
1e-10
1e-10
1e-10
1e-10
1e-10
1e-10
1e-10
1e-10
1e-10
1e-10
1e-10
1e-10
1e-10
1e-10
1e-10
1e-10
1e-10
1e-10
1e-10
1e-10
1e-10
1e-10
1e-10
1e-10
1e-10
1e-10
1e-10
1e-10
1e-10
1e-10
1e-10
1e-10
1e-10
1e-10
1e-10
1e-10
1e-10
1e-10
1e-10
1e-10
1e-10
1e-10
1e-10
1e-10
1e-10
1e-10
1e-10
1e-10
1e-10
1e-10
1e-10
1e-10
1e-10
1e-10
1e-10
1e-10
1e-10
1e-10
1e-10
1e-10
0.0800517
0.102106
0.141719
0.102106
0.0800555
1e-10
0.129177
0.216996
0.129182
1e-10
1e-10
1e-10
0.246785
1e-10
1e-10
0.48517
0.656594
0.653559
0.656468
0.485163
0.488013
0.635796
0.592807
0.635663
0.488005
1e-10
1e-10
0.231102
1e-10
1e-10
1e-10
0.00470945
0.249297
0.00470766
1e-10
0.0655527
0.0973073
0.107183
0.0973073
0.0655444
1e-10
1e-10
1e-10
1e-10
1e-10
1e-10
1e-10
1e-10
1e-10
1e-10
1e-10
1e-10
1e-10
1e-10
1e-10
1e-10
1e-10
1e-10
1e-10
1e-10
1e-10
1e-10
1e-10
1e-10
1e-10
1e-10
1e-10
1e-10
1e-10
1e-10
1e-10
1e-10
1e-10
1e-10
1e-10
1e-10
1e-10
1e-10
1e-10
1e-10
1e-10
1e-10
1e-10
1e-10
1e-10
1e-10
1e-10
1e-10
1e-10
1e-10
1e-10
1e-10
1e-10
1e-10
1e-10
1e-10
1e-10
1e-10
1e-10
1e-10
0.0655447
0.0973073
0.107189
0.0973073
0.0655438
1e-10
0.00470764
0.249308
0.00470865
1e-10
1e-10
1e-10
0.231113
1e-10
1e-10
0.488003
0.635783
0.592775
0.635666
0.487995
0.506929
0.598013
0.55184
0.597953
0.506822
1e-10
1e-10
0.22483
1e-10
1e-10
1e-10
0.00193253
0.208387
0.00193275
1e-10
0.0752153
0.0638054
0.0662738
0.0638004
0.0752185
1e-10
1e-10
1e-10
1e-10
1e-10
1e-10
1e-10
1e-10
1e-10
1e-10
1e-10
1e-10
1e-10
1e-10
1e-10
1e-10
1e-10
1e-10
1e-10
1e-10
1e-10
1e-10
1e-10
1e-10
1e-10
1e-10
1e-10
1e-10
1e-10
1e-10
1e-10
1e-10
1e-10
1e-10
1e-10
1e-10
1e-10
1e-10
1e-10
1e-10
1e-10
1e-10
1e-10
1e-10
1e-10
1e-10
1e-10
1e-10
1e-10
1e-10
1e-10
1e-10
1e-10
1e-10
1e-10
1e-10
1e-10
1e-10
1e-10
1e-10
0.0752212
0.0638042
0.0662851
0.0638034
0.0752213
1e-10
0.00192754
0.20839
0.00192839
1e-10
1e-10
1e-10
0.224843
1e-10
1e-10
0.50691
0.598008
0.551858
0.597924
0.506867
0.550318
0.577934
0.53504
0.577878
0.550212
1e-10
1e-10
0.197898
1e-10
1e-10
1e-10
0.00277174
0.119732
0.00277477
1e-10
0.0816153
0.0328703
0.000397661
0.0328623
0.0816185
1e-10
1e-10
1e-10
1e-10
1e-10
1e-10
1e-10
1e-10
1e-10
1e-10
1e-10
1e-10
1e-10
1e-10
1e-10
1e-10
1e-10
1e-10
1e-10
1e-10
1e-10
1e-10
1e-10
1e-10
1e-10
1e-10
1e-10
1e-10
1e-10
1e-10
1e-10
1e-10
1e-10
1e-10
1e-10
1e-10
1e-10
1e-10
1e-10
1e-10
1e-10
1e-10
1e-10
1e-10
1e-10
1e-10
1e-10
1e-10
1e-10
1e-10
1e-10
1e-10
1e-10
1e-10
1e-10
1e-10
1e-10
1e-10
1e-10
1e-10
0.0816227
0.032872
0.00039768
0.0328637
0.0816231
1e-10
0.00276007
0.119746
0.00276173
1e-10
1e-10
1e-10
0.197897
1e-10
1e-10
0.550291
0.577924
0.535047
0.577899
0.550248
0.587831
0.547231
0.520697
0.547185
0.587772
1.46956e-08
7.61031e-09
2.81033e-05
7.66778e-09
1.47652e-08
0.000573129
0.0260752
0.00125811
0.0260814
0.000574004
0.0841406
0.000995277
9.54362e-10
0.000990614
0.0841406
1e-10
1e-10
1e-10
1e-10
1e-10
1e-10
1e-10
1e-10
1e-10
1e-10
1e-10
1e-10
1e-10
1e-10
1e-10
1e-10
1e-10
1e-10
1e-10
1e-10
1e-10
1e-10
1e-10
1e-10
1e-10
1e-10
1e-10
1e-10
1e-10
1e-10
1e-10
1e-10
1e-10
1e-10
1e-10
1e-10
1e-10
1e-10
1e-10
1e-10
1e-10
1e-10
1e-10
1e-10
1e-10
1e-10
1e-10
1e-10
1e-10
1e-10
1e-10
1e-10
1e-10
1e-10
1e-10
1e-10
1e-10
1e-10
1e-10
1e-10
0.0841406
0.000993194
9.54335e-10
0.000990448
0.0841406
0.0005747
0.0260777
0.00125924
0.0260749
0.000573552
1.46688e-08
7.55271e-09
2.79619e-05
7.62297e-09
1.46727e-08
0.587864
0.547231
0.520692
0.547173
0.587765
0.570976
0.544046
0.540004
0.543979
0.570836
0.503048
1.69428e-05
2.16741e-09
1.69811e-05
0.503088
0.0465087
1e-10
1e-10
1e-10
0.0465052
0.0799109
3.85677e-05
3.60392e-09
3.8446e-05
0.0799109
1e-10
1e-10
1e-10
1e-10
1e-10
1e-10
1e-10
1e-10
1e-10
1e-10
1e-10
1e-10
1e-10
1e-10
1e-10
1e-10
1e-10
1e-10
1e-10
1e-10
1e-10
1e-10
1e-10
1e-10
1e-10
1e-10
1e-10
1e-10
1e-10
1e-10
1e-10
1e-10
1e-10
1e-10
1e-10
1e-10
1e-10
1e-10
1e-10
1e-10
1e-10
1e-10
1e-10
1e-10
1e-10
1e-10
1e-10
1e-10
1e-10
1e-10
1e-10
1e-10
1e-10
1e-10
1e-10
1e-10
1e-10
1e-10
1e-10
1e-10
0.0799109
3.84839e-05
3.60685e-09
3.84029e-05
0.0799109
0.0465193
1e-10
1e-10
1e-10
0.0465069
0.503113
1.69266e-05
2.17152e-09
1.69473e-05
0.503111
0.570951
0.544043
0.540007
0.543978
0.570829
0.462666
0.511625
0.543824
0.511553
0.462611
0.398885
8.00011e-06
1e-10
8.02015e-06
0.398842
0.266291
8.50408e-10
1e-10
8.50527e-10
0.266304
0.0321744
1e-10
1e-10
1e-10
0.032174
1e-10
1e-10
1e-10
1e-10
1e-10
1e-10
1e-10
1e-10
1e-10
1e-10
1e-10
1e-10
1e-10
1e-10
1e-10
1e-10
1e-10
1e-10
1e-10
1e-10
1e-10
1e-10
1e-10
1e-10
1e-10
1e-10
1e-10
1e-10
1e-10
1e-10
1e-10
1e-10
1e-10
1e-10
1e-10
1e-10
1e-10
1e-10
1e-10
1e-10
1e-10
1e-10
1e-10
1e-10
1e-10
1e-10
1e-10
1e-10
1e-10
1e-10
1e-10
1e-10
1e-10
1e-10
1e-10
1e-10
1e-10
1e-10
1e-10
1e-10
0.0321724
1e-10
1e-10
1e-10
0.0321678
0.266289
8.48371e-10
1e-10
8.48173e-10
0.266301
0.398889
7.99806e-06
1e-10
8.00711e-06
0.398865
0.462644
0.511617
0.543822
0.511548
0.462616
0.439546
0.504984
0.552762
0.504902
0.439503
0.127541
0.00394608
1e-10
0.00394455
0.127533
0.434858
1.2696e-09
1e-10
1.27531e-09
0.434877
0.026074
1e-10
1e-10
1e-10
0.0260735
1e-10
1e-10
1e-10
1e-10
1e-10
1e-10
1e-10
1e-10
1e-10
1e-10
1e-10
1e-10
1e-10
1e-10
1e-10
1e-10
1e-10
1e-10
1e-10
1e-10
1e-10
1e-10
1e-10
1e-10
1e-10
1e-10
1e-10
1e-10
1e-10
1e-10
1e-10
1e-10
1e-10
1e-10
1e-10
1e-10
1e-10
1e-10
1e-10
1e-10
1e-10
1e-10
1e-10
1e-10
1e-10
1e-10
1e-10
1e-10
1e-10
1e-10
1e-10
1e-10
1e-10
1e-10
1e-10
1e-10
1e-10
1e-10
1e-10
1e-10
0.026061
1e-10
1e-10
1e-10
0.0260517
0.434883
1.26861e-09
1e-10
1.27195e-09
0.43489
0.127539
0.00394561
1e-10
0.00394261
0.127532
0.439539
0.504963
0.552746
0.504889
0.439508
0.438342
0.507989
0.547812
0.507897
0.438304
0.0229744
9.29127e-06
5.85189e-07
9.28715e-06
0.0229713
0.176335
0.000123311
1e-10
0.000123278
0.176332
0.440235
1e-10
1e-10
1e-10
0.440252
1e-10
1e-10
1e-10
1e-10
1e-10
1e-10
1e-10
1e-10
1e-10
1e-10
1e-10
1e-10
1e-10
1e-10
1e-10
1e-10
1e-10
1e-10
1e-10
1e-10
1e-10
1e-10
1e-10
1e-10
1e-10
1e-10
1e-10
1e-10
1e-10
1e-10
1e-10
1e-10
1e-10
1e-10
1e-10
1e-10
1e-10
1e-10
1e-10
1e-10
1e-10
1e-10
1e-10
1e-10
1e-10
1e-10
1e-10
1e-10
1e-10
1e-10
1e-10
1e-10
1e-10
1e-10
1e-10
1e-10
1e-10
1e-10
1e-10
1e-10
0.440279
1e-10
1e-10
1e-10
0.440261
0.176338
0.00012331
1e-10
0.00012327
0.176334
0.0229754
9.28334e-06
5.85079e-07
9.28322e-06
0.0229651
0.438338
0.507968
0.547791
0.50788
0.438312
0.436861
0.501071
0.533181
0.500988
0.436831
0.0183147
9.35917e-09
1.30405e-08
9.35485e-09
0.0183186
0.059303
0.000403868
1e-10
0.000403789
0.0592853
0.292694
1e-10
1e-10
1e-10
0.292697
0.260294
1e-10
1e-10
1e-10
0.260287
0.0866618
1e-10
1e-10
1e-10
0.0866619
0.0366006
1e-10
1e-10
1e-10
0.0366014
0.0032883
1e-10
1e-10
1e-10
0.00328836
1e-10
1e-10
1e-10
1e-10
1e-10
1e-10
1e-10
1e-10
1e-10
1e-10
1e-10
1e-10
1e-10
1e-10
1e-10
1e-10
1e-10
1e-10
1e-10
1e-10
0.00327484
1e-10
1e-10
1e-10
0.00328758
0.0365999
1e-10
1e-10
1e-10
0.0366017
0.0866581
1e-10
1e-10
1e-10
0.0866617
0.260291
1e-10
1e-10
1e-10
0.260289
0.292729
1e-10
1e-10
1e-10
0.292713
0.0593078
0.000403928
1e-10
0.000403822
0.0592946
0.01832
9.28723e-09
1.30191e-08
9.25521e-09
0.0183087
0.436851
0.501054
0.53316
0.50097
0.436837
0.451857
0.496458
0.516909
0.49642
0.451789
0.0471246
4.28631e-10
1e-10
4.29079e-10
0.0471282
0.0275068
1e-10
8.74166e-09
1e-10
0.0275031
0.197488
0.00180838
2.56602e-05
0.00180763
0.197478
0.252152
1e-10
1e-10
1e-10
0.252163
0.132885
1e-10
1e-10
1e-10
0.132883
0.0727776
1e-10
1e-10
1e-10
0.0727781
0.0462835
1e-10
1e-10
1e-10
0.0462844
0.032637
1e-10
1e-10
1e-10
0.0326384
1e-10
1e-10
1e-10
1e-10
1e-10
1e-10
1e-10
1e-10
1e-10
1e-10
0.0326372
1e-10
1e-10
1e-10
0.0326381
0.0463
1e-10
1e-10
1e-10
0.0462864
0.0727834
1e-10
1e-10
1e-10
0.0727795
0.13289
1e-10
1e-10
1e-10
0.132884
0.252178
1e-10
1e-10
1e-10
0.252174
0.197501
0.00180866
2.56817e-05
0.00180772
0.197498
0.0275108
1e-10
8.72802e-09
1e-10
0.0275046
0.0471273
4.2806e-10
1e-10
4.27675e-10
0.0471289
0.45185
0.496453
0.516907
0.49642
0.451792
0.45609
0.492285
0.515862
0.492253
0.456031
0.0417868
1e-10
1e-10
1e-10
0.0417865
0.0600889
1e-10
1.44562e-08
1e-10
0.0600699
0.12257
0.0106794
0.00397605
0.0106775
0.122559
0.287639
0.0119587
1.66819e-08
0.0119529
0.287645
0.147853
1e-10
1e-10
1e-10
0.147857
0.0860248
1e-10
1e-10
1e-10
0.0860247
0.0597841
1e-10
1e-10
1e-10
0.0597845
0.0401746
1e-10
1e-10
1e-10
0.0401749
0.0354796
1e-10
1e-10
1e-10
0.0354777
0.0354787
1e-10
1e-10
1e-10
0.0354771
0.040175
1e-10
1e-10
1e-10
0.0401754
0.0597923
1e-10
1e-10
1e-10
0.0597856
0.0860289
1e-10
1e-10
1e-10
0.0860258
0.147866
1e-10
1e-10
1e-10
0.147865
0.287671
0.0119594
1.66989e-08
0.0119526
0.287662
0.122598
0.0106814
0.00397672
0.0106821
0.122585
0.0600665
1e-10
1.43801e-08
1e-10
0.0600457
0.041783
1e-10
1e-10
1e-10
0.0417819
0.456084
0.492278
0.515855
0.492245
0.456027
0.446381
0.477009
0.519453
0.476944
0.446336
0.0386427
0.0321872
1e-10
0.0321866
0.0386422
0.0555245
0.0401476
1e-10
0.0401446
0.0555203
0.0628454
1.51223e-05
0.0037587
1.51129e-05
0.0628331
0.226047
0.0648297
0.0042426
0.0648143
0.226049
0.177756
1e-10
1e-10
1e-10
0.177762
0.0949039
1e-10
1e-10
1e-10
0.0949054
0.0673937
1e-10
1e-10
1e-10
0.067395
0.0538433
1e-10
1e-10
1e-10
0.0538445
0.049544
1e-10
1e-10
1e-10
0.0495459
0.0495441
1e-10
1e-10
1e-10
0.049546
0.053847
1e-10
1e-10
1e-10
0.0538446
0.067396
1e-10
1e-10
1e-10
0.0673981
0.0949117
1e-10
1e-10
1e-10
0.0949112
0.177774
1e-10
1e-10
1e-10
0.177776
0.226081
0.064841
0.00424463
0.0648301
0.226076
0.0628592
1.51552e-05
0.00375971
1.51365e-05
0.0628512
0.0555214
0.0401446
1e-10
0.0401457
0.0555236
0.0386418
0.0321892
1e-10
0.0321894
0.0386403
0.446381
0.477002
0.519444
0.476941
0.446328
0.452504
0.487664
0.535269
0.487606
0.452377
0.0432617
0.0302114
1e-10
0.0302099
0.0432598
0.0346113
1e-10
1e-10
1e-10
0.0346107
0.0632355
1e-10
1e-10
1e-10
0.0632356
0.161208
0.0764533
0.0117739
0.0764267
0.161213
0.184843
0.0662805
1e-10
0.0662806
0.184853
0.0889658
1e-10
1e-10
1e-10
0.0889674
0.0706684
1e-10
1e-10
1e-10
0.0706708
0.06732
1e-10
1e-10
1e-10
0.067323
0.0639731
1e-10
1e-10
1e-10
0.0639746
0.0639742
1e-10
1e-10
1e-10
0.0639745
0.0673228
1e-10
1e-10
1e-10
0.0673256
0.070673
1e-10
1e-10
1e-10
0.0706754
0.0889759
1e-10
1e-10
1e-10
0.0889756
0.184866
0.0662815
1e-10
0.0662801
0.184869
0.161233
0.0764613
0.0117803
0.0764413
0.161233
0.0632407
1e-10
1e-10
1e-10
0.0632375
0.0346117
1e-10
1e-10
1e-10
0.0346092
0.0432625
0.030212
1e-10
0.0302115
0.0432613
0.452496
0.487664
0.535247
0.487577
0.452359
0.469458
0.490308
0.519383
0.490246
0.469324
0.0490648
1e-10
1e-10
1e-10
0.0490619
0.0435473
1e-10
1e-10
1e-10
0.0435475
0.064258
1e-10
1e-10
1e-10
0.0642521
0.146848
0.0710862
0.0138512
0.0710786
0.146857
0.200546
0.099172
0.0149952
0.0991633
0.200558
0.07965
0.00134833
1e-10
0.00134818
0.0796532
0.0690419
1e-10
1e-10
1e-10
0.0690461
0.0786311
1e-10
1e-10
1e-10
0.0786357
0.0868059
1e-10
1e-10
1e-10
0.0868112
0.0868074
1e-10
1e-10
1e-10
0.086812
0.0786344
1e-10
1e-10
1e-10
0.0786383
0.0690476
1e-10
1e-10
1e-10
0.0690509
0.0796611
0.00134856
1e-10
0.0013481
0.0796614
0.200571
0.0991863
0.0149973
0.0991776
0.200574
0.146865
0.071099
0.0138571
0.0710886
0.146869
0.0642576
1e-10
1e-10
1e-10
0.0642528
0.0435469
1e-10
1e-10
1e-10
0.0435482
0.0490648
1e-10
1e-10
1e-10
0.0490637
0.469447
0.490303
0.519362
0.490222
0.46931
0.464961
0.472767
0.48837
0.47275
0.464922
1e-10
1e-10
1e-10
1e-10
1e-10
1e-10
1e-10
1e-10
1e-10
1e-10
1e-10
1e-10
1e-10
1e-10
1e-10
0.0667683
0.0115438
0.00377364
0.0115416
0.066733
0.238943
0.129286
0.0592238
0.129275
0.238951
0.0923632
0.0425997
1.4599e-05
0.0425978
0.0923701
0.0710219
1e-10
1e-10
1e-10
0.0710265
0.0743982
1e-10
1e-10
1e-10
0.0744028
0.110837
1e-10
1e-10
1e-10
0.110844
0.110837
1e-10
1e-10
1e-10
0.110843
0.0744003
1e-10
1e-10
1e-10
0.0744046
0.0710301
1e-10
1e-10
1e-10
0.0710326
0.0923767
0.0426066
1.45523e-05
0.0426037
0.0923789
0.238973
0.129304
0.0592429
0.12929
0.238971
0.0667888
0.0115471
0.00377505
0.0115447
0.0667583
1e-10
1e-10
1e-10
1e-10
1e-10
1e-10
1e-10
1e-10
1e-10
1e-10
1e-10
1e-10
1e-10
1e-10
1e-10
0.46495
0.472762
0.488352
0.47275
0.46493
0.455641
0.484902
0.495784
0.484816
0.455475
1e-10
1e-10
1e-10
1e-10
1e-10
1e-10
1e-10
1e-10
1e-10
1e-10
1e-10
1e-10
1e-10
1e-10
1e-10
1.05336e-09
1.18363e-07
1.1377e-08
1.18107e-07
1.04838e-09
0.14663
0.118828
0.0704349
0.118826
0.14662
0.110645
0.0666627
0.0526198
0.066663
0.110652
0.0945839
0.0148696
4.2722e-10
0.0148679
0.0945905
0.0707042
1e-10
1e-10
1e-10
0.0707089
0.127635
1e-10
1e-10
1e-10
0.127642
0.127632
1e-10
1e-10
1e-10
0.12764
0.0707061
1e-10
1e-10
1e-10
0.0707103
0.0945939
0.0148758
4.25933e-10
0.0148744
0.0945977
0.110659
0.0666722
0.0526206
0.0666713
0.110663
0.146639
0.118834
0.0704459
0.118829
0.146622
1.05286e-09
1.18262e-07
1.13666e-08
1.17997e-07
1.04715e-09
1e-10
1e-10
1e-10
1e-10
1e-10
1e-10
1e-10
1e-10
1e-10
1e-10
1e-10
1e-10
1e-10
1e-10
1e-10
0.455623
0.484889
0.495763
0.484795
0.455464
0.455988
0.475137
0.477293
0.475094
0.45592
1e-10
1e-10
1e-10
1e-10
1e-10
1e-10
1e-10
1e-10
1e-10
1e-10
1e-10
1e-10
1e-10
1e-10
1e-10
1e-10
1e-10
1e-10
1e-10
1e-10
0.10329
0.106879
0.0759217
0.106877
0.103286
0.100557
0.0711298
0.0635761
0.0711288
0.10056
0.113678
0.0669592
0.0557894
0.0669589
0.113684
0.128363
1e-10
1e-10
1e-10
0.128371
1e-10
1e-10
1e-10
1e-10
1e-10
1e-10
1e-10
1e-10
1e-10
1e-10
0.128364
1e-10
1e-10
1e-10
0.128372
0.113688
0.0669618
0.0557903
0.0669602
0.113692
0.100571
0.0711336
0.0635772
0.071131
0.10057
0.103286
0.106875
0.0759381
0.106877
0.103288
1e-10
1e-10
1e-10
1e-10
1e-10
1e-10
1e-10
1e-10
1e-10
1e-10
1e-10
1e-10
1e-10
1e-10
1e-10
1e-10
1e-10
1e-10
1e-10
1e-10
0.45595
0.475154
0.477276
0.475051
0.455951
0.454837
0.482082
0.483834
0.482033
0.454747
1e-10
1e-10
1e-10
1e-10
1e-10
1e-10
1e-10
1e-10
1e-10
1e-10
1e-10
1e-10
1e-10
1e-10
1e-10
1e-10
1e-10
1e-10
1e-10
1e-10
0.068546
0.072501
0.0726276
0.0724995
0.0685434
0.069135
0.061167
0.0590214
0.0611649
0.0691373
0.0949015
0.0661784
0.0592296
0.0661783
0.0949067
0.114085
0.0906415
0.0256143
0.0906449
0.114092
1e-10
1e-10
1e-10
1e-10
1e-10
1e-10
1e-10
1e-10
1e-10
1e-10
0.114098
0.0906454
0.0256322
0.0906483
0.114103
0.0949103
0.0661808
0.0592308
0.0661788
0.094914
0.0691442
0.0611669
0.0590217
0.0611657
0.069145
0.0685429
0.0725
0.0726276
0.0725008
0.0685453
1e-10
1e-10
1e-10
1e-10
1e-10
1e-10
1e-10
1e-10
1e-10
1e-10
1e-10
1e-10
1e-10
1e-10
1e-10
1e-10
1e-10
1e-10
1e-10
1e-10
0.454821
0.482071
0.483828
0.482033
0.454751
0.457032
0.490763
0.489604
0.490691
0.456885
1e-10
1e-10
1e-10
1e-10
1e-10
1e-10
1e-10
1e-10
1e-10
1e-10
1e-10
1e-10
1e-10
1e-10
1e-10
1e-10
1e-10
1e-10
1e-10
1e-10
0.0494037
0.0478361
0.0487622
0.0478359
0.0494034
0.0451803
0.0463535
0.0463527
0.046355
0.0451835
0.0544993
0.0517556
0.0493315
0.0517547
0.0545028
0.0655322
0.0595781
0.05606
0.0595775
0.0655372
0.102206
0.0942297
0.00248268
0.0942331
0.102214
0.102215
0.094236
0.00248748
0.094239
0.102221
0.0655425
0.0595799
0.056061
0.0595778
0.0655453
0.0545066
0.0517578
0.049333
0.0517558
0.0545094
0.0451818
0.0463545
0.0463528
0.0463546
0.0451822
0.0494035
0.047836
0.048763
0.0478361
0.0494036
1e-10
1e-10
1e-10
1e-10
1e-10
1e-10
1e-10
1e-10
1e-10
1e-10
1e-10
1e-10
1e-10
1e-10
1e-10
1e-10
1e-10
1e-10
1e-10
1e-10
0.45702
0.490757
0.489589
0.490669
0.456871
0.455739
0.49365
0.500052
0.493577
0.455592
1e-10
1e-10
1e-10
1e-10
1e-10
1e-10
1e-10
1e-10
1e-10
1e-10
1e-10
1e-10
1e-10
1e-10
1e-10
1e-10
1e-10
1e-10
1e-10
1e-10
0.0325083
0.034391
0.0349042
0.03439
0.0325064
0.0363673
0.0347968
0.0348263
0.0347967
0.0363672
0.0423105
0.0417392
0.0411009
0.0417373
0.0423111
0.0642203
0.056138
0.051788
0.0561382
0.0642257
0.0933886
0.0761191
0.0634007
0.0761221
0.0933963
0.0933931
0.0761232
0.0634002
0.0761262
0.0934005
0.0642285
0.0561398
0.0517892
0.0561383
0.0642331
0.0423132
0.0417391
0.0411014
0.0417384
0.0423108
0.0363673
0.0347969
0.0348264
0.0347969
0.0363674
0.0325069
0.0343904
0.0349047
0.0343913
0.0325086
1e-10
1e-10
1e-10
1e-10
1e-10
1e-10
1e-10
1e-10
1e-10
1e-10
1e-10
1e-10
1e-10
1e-10
1e-10
1e-10
1e-10
1e-10
1e-10
1e-10
0.455736
0.49365
0.500032
0.493544
0.455571
0.453284
0.480608
0.484626
0.480503
0.453283
1e-10
1e-10
1e-10
1e-10
1e-10
1e-10
1e-10
1e-10
1e-10
1e-10
1e-10
1e-10
1e-10
1e-10
1e-10
1e-10
1e-10
1e-10
1e-10
1e-10
0.0236727
0.0248813
0.0249611
0.0248802
0.0236707
0.0328215
0.0313556
0.0314684
0.0313556