# vtk DataFile Version 4.1
vtk output
ASCII
DATASET UNSTRUCTURED_GRID

POINTS	48051	float
0	0	0	
2.5	0	0	
5	0	0	
7.5	0	0	
10	0	0	
12.5	0	0	
15	0	0	
17.5	0	0	
20	0	0	
22.5	0	0	
25	0	0	
27.5	0	0	
30	0	0	
32.5	0	0	
35	0	0	
37.5	0	0	
40	0	0	
42.5	0	0	
45	0	0	
47.5	0	0	
50	0	0	
52.5	0	0	
55	0	0	
57.5	0	0	
60	0	0	
62.5	0	0	
65	0	0	
67.5	0	0	
70	0	0	
72.5	0	0	
75	0	0	
77.5	0	0	
80	0	0	
82.5	0	0	
85	0	0	
87.5	0	0	
90	0	0	
92.5	0	0	
95	0	0	
97.5	0	0	
100	0	0	
102.5	0	0	
105	0	0	
107.5	0	0	
110	0	0	
112.5	0	0	
115	0	0	
117.5	0	0	
120	0	0	
122.5	0	0	
125	0	0	
127.5	0	0	
130	0	0	
132.5	0	0	
135	0	0	
137.5	0	0	
140	0	0	
142.5	0	0	
145	0	0	
147.5	0	0	
150	0	0	
152.5	0	0	
155	0	0	
157.5	0	0	
160	0	0	
162.5	0	0	
165	0	0	
167.5	0	0	
170	0	0	
172.5	0	0	
175	0	0	
177.5	0	0	
180	0	0	
182.5	0	0	
185	0	0	
187.5	0	0	
190	0	0	
192.5	0	0	
195	0	0	
197.5	0	0	
200	0	0	
202.5	0	0	
205	0	0	
207.5	0	0	
210	0	0	
212.5	0	0	
215	0	0	
217.5	0	0	
220	0	0	
222.5	0	0	
225	0	0	
227.5	0	0	
230	0	0	
232.5	0	0	
235	0	0	
237.5	0	0	
240	0	0	
242.5	0	0	
245	0	0	
247.5	0	0	
250	0	0	
0	2.5	0	
2.5	2.5	0	
5	2.5	0	
7.5	2.5	0	
10	2.5	0	
12.5	2.5	0	
15	2.5	0	
17.5	2.5	0	
20	2.5	0	
22.5	2.5	0	
25	2.5	0	
27.5	2.5	0	
30	2.5	0	
32.5	2.5	0	
35	2.5	0	
37.5	2.5	0	
40	2.5	0	
42.5	2.5	0	
45	2.5	0	
47.5	2.5	0	
50	2.5	0	
52.5	2.5	0	
55	2.5	0	
57.5	2.5	0	
60	2.5	0	
62.5	2.5	0	
65	2.5	0	
67.5	2.5	0	
70	2.5	0	
72.5	2.5	0	
75	2.5	0	
77.5	2.5	0	
80	2.5	0	
82.5	2.5	0	
85	2.5	0	
87.5	2.5	0	
90	2.5	0	
92.5	2.5	0	
95	2.5	0	
97.5	2.5	0	
100	2.5	0	
102.5	2.5	0	
105	2.5	0	
107.5	2.5	0	
110	2.5	0	
112.5	2.5	0	
115	2.5	0	
117.5	2.5	0	
120	2.5	0	
122.5	2.5	0	
125	2.5	0	
127.5	2.5	0	
130	2.5	0	
132.5	2.5	0	
135	2.5	0	
137.5	2.5	0	
140	2.5	0	
142.5	2.5	0	
145	2.5	0	
147.5	2.5	0	
150	2.5	0	
152.5	2.5	0	
155	2.5	0	
157.5	2.5	0	
160	2.5	0	
162.5	2.5	0	
165	2.5	0	
167.5	2.5	0	
170	2.5	0	
172.5	2.5	0	
175	2.5	0	
177.5	2.5	0	
180	2.5	0	
182.5	2.5	0	
185	2.5	0	
187.5	2.5	0	
190	2.5	0	
192.5	2.5	0	
195	2.5	0	
197.5	2.5	0	
200	2.5	0	
202.5	2.5	0	
205	2.5	0	
207.5	2.5	0	
210	2.5	0	
212.5	2.5	0	
215	2.5	0	
217.5	2.5	0	
220	2.5	0	
222.5	2.5	0	
225	2.5	0	
227.5	2.5	0	
230	2.5	0	
232.5	2.5	0	
235	2.5	0	
237.5	2.5	0	
240	2.5	0	
242.5	2.5	0	
245	2.5	0	
247.5	2.5	0	
250	2.5	0	
0	5	0	
2.5	5	0	
5	5	0	
7.5	5	0	
10	5	0	
12.5	5	0	
15	5	0	
17.5	5	0	
20	5	0	
22.5	5	0	
25	5	0	
27.5	5	0	
30	5	0	
32.5	5	0	
35	5	0	
37.5	5	0	
40	5	0	
42.5	5	0	
45	5	0	
47.5	5	0	
50	5	0	
52.5	5	0	
55	5	0	
57.5	5	0	
60	5	0	
62.5	5	0	
65	5	0	
67.5	5	0	
70	5	0	
72.5	5	0	
75	5	0	
77.5	5	0	
80	5	0	
82.5	5	0	
85	5	0	
87.5	5	0	
90	5	0	
92.5	5	0	
95	5	0	
97.5	5	0	
100	5	0	
102.5	5	0	
105	5	0	
107.5	5	0	
110	5	0	
112.5	5	0	
115	5	0	
117.5	5	0	
120	5	0	
122.5	5	0	
125	5	0	
127.5	5	0	
130	5	0	
132.5	5	0	
135	5	0	
137.5	5	0	
140	5	0	
142.5	5	0	
145	5	0	
147.5	5	0	
150	5	0	
152.5	5	0	
155	5	0	
157.5	5	0	
160	5	0	
162.5	5	0	
165	5	0	
167.5	5	0	
170	5	0	
172.5	5	0	
175	5	0	
177.5	5	0	
180	5	0	
182.5	5	0	
185	5	0	
187.5	5	0	
190	5	0	
192.5	5	0	
195	5	0	
197.5	5	0	
200	5	0	
202.5	5	0	
205	5	0	
207.5	5	0	
210	5	0	
212.5	5	0	
215	5	0	
217.5	5	0	
220	5	0	
222.5	5	0	
225	5	0	
227.5	5	0	
230	5	0	
232.5	5	0	
235	5	0	
237.5	5	0	
240	5	0	
242.5	5	0	
245	5	0	
247.5	5	0	
250	5	0	
0	7.5	0	
2.5	7.5	0	
5	7.5	0	
7.5	7.5	0	
10	7.5	0	
12.5	7.5	0	
15	7.5	0	
17.5	7.5	0	
20	7.5	0	
22.5	7.5	0	
25	7.5	0	
27.5	7.5	0	
30	7.5	0	
32.5	7.5	0	
35	7.5	0	
37.5	7.5	0	
40	7.5	0	
42.5	7.5	0	
45	7.5	0	
47.5	7.5	0	
50	7.5	0	
52.5	7.5	0	
55	7.5	0	
57.5	7.5	0	
60	7.5	0	
62.5	7.5	0	
65	7.5	0	
67.5	7.5	0	
70	7.5	0	
72.5	7.5	0	
75	7.5	0	
77.5	7.5	0	
80	7.5	0	
82.5	7.5	0	
85	7.5	0	
87.5	7.5	0	
90	7.5	0	
92.5	7.5	0	
95	7.5	0	
97.5	7.5	0	
100	7.5	0	
102.5	7.5	0	
105	7.5	0	
107.5	7.5	0	
110	7.5	0	
112.5	7.5	0	
115	7.5	0	
117.5	7.5	0	
120	7.5	0	
122.5	7.5	0	
125	7.5	0	
127.5	7.5	0	
130	7.5	0	
132.5	7.5	0	
135	7.5	0	
137.5	7.5	0	
140	7.5	0	
142.5	7.5	0	
145	7.5	0	
147.5	7.5	0	
150	7.5	0	
152.5	7.5	0	
155	7.5	0	
157.5	7.5	0	
160	7.5	0	
162.5	7.5	0	
165	7.5	0	
167.5	7.5	0	
170	7.5	0	
172.5	7.5	0	
175	7.5	0	
177.5	7.5	0	
180	7.5	0	
182.5	7.5	0	
185	7.5	0	
187.5	7.5	0	
190	7.5	0	
192.5	7.5	0	
195	7.5	0	
197.5	7.5	0	
200	7.5	0	
202.5	7.5	0	
205	7.5	0	
207.5	7.5	0	
210	7.5	0	
212.5	7.5	0	
215	7.5	0	
217.5	7.5	0	
220	7.5	0	
222.5	7.5	0	
225	7.5	0	
227.5	7.5	0	
230	7.5	0	
232.5	7.5	0	
235	7.5	0	
237.5	7.5	0	
240	7.5	0	
242.5	7.5	0	
245	7.5	0	
247.5	7.5	0	
250	7.5	0	
0	10	0	
2.5	10	0	
5	10	0	
7.5	10	0	
10	10	0	
12.5	10	0	
15	10	0	
17.5	10	0	
20	10	0	
22.5	10	0	
25	10	0	
27.5	10	0	
30	10	0	
32.5	10	0	
35	10	0	
37.5	10	0	
40	10	0	
42.5	10	0	
45	10	0	
47.5	10	0	
50	10	0	
52.5	10	0	
55	10	0	
57.5	10	0	
60	10	0	
62.5	10	0	
65	10	0	
67.5	10	0	
70	10	0	
72.5	10	0	
75	10	0	
77.5	10	0	
80	10	0	
82.5	10	0	
85	10	0	
87.5	10	0	
90	10	0	
92.5	10	0	
95	10	0	
97.5	10	0	
100	10	0	
102.5	10	0	
105	10	0	
107.5	10	0	
110	10	0	
112.5	10	0	
115	10	0	
117.5	10	0	
120	10	0	
122.5	10	0	
125	10	0	
127.5	10	0	
130	10	0	
132.5	10	0	
135	10	0	
137.5	10	0	
140	10	0	
142.5	10	0	
145	10	0	
147.5	10	0	
150	10	0	
152.5	10	0	
155	10	0	
157.5	10	0	
160	10	0	
162.5	10	0	
165	10	0	
167.5	10	0	
170	10	0	
172.5	10	0	
175	10	0	
177.5	10	0	
180	10	0	
182.5	10	0	
185	10	0	
187.5	10	0	
190	10	0	
192.5	10	0	
195	10	0	
197.5	10	0	
200	10	0	
202.5	10	0	
205	10	0	
207.5	10	0	
210	10	0	
212.5	10	0	
215	10	0	
217.5	10	0	
220	10	0	
222.5	10	0	
225	10	0	
227.5	10	0	
230	10	0	
232.5	10	0	
235	10	0	
237.5	10	0	
240	10	0	
242.5	10	0	
245	10	0	
247.5	10	0	
250	10	0	
0	12.5	0	
2.5	12.5	0	
5	12.5	0	
7.5	12.5	0	
10	12.5	0	
12.5	12.5	0	
15	12.5	0	
17.5	12.5	0	
20	12.5	0	
22.5	12.5	0	
25	12.5	0	
27.5	12.5	0	
30	12.5	0	
32.5	12.5	0	
35	12.5	0	
37.5	12.5	0	
40	12.5	0	
42.5	12.5	0	
45	12.5	0	
47.5	12.5	0	
50	12.5	0	
52.5	12.5	0	
55	12.5	0	
57.5	12.5	0	
60	12.5	0	
62.5	12.5	0	
65	12.5	0	
67.5	12.5	0	
70	12.5	0	
72.5	12.5	0	
75	12.5	0	
77.5	12.5	0	
80	12.5	0	
82.5	12.5	0	
85	12.5	0	
87.5	12.5	0	
90	12.5	0	
92.5	12.5	0	
95	12.5	0	
97.5	12.5	0	
100	12.5	0	
102.5	12.5	0	
105	12.5	0	
107.5	12.5	0	
110	12.5	0	
112.5	12.5	0	
115	12.5	0	
117.5	12.5	0	
120	12.5	0	
122.5	12.5	0	
125	12.5	0	
127.5	12.5	0	
130	12.5	0	
132.5	12.5	0	
135	12.5	0	
137.5	12.5	0	
140	12.5	0	
142.5	12.5	0	
145	12.5	0	
147.5	12.5	0	
150	12.5	0	
152.5	12.5	0	
155	12.5	0	
157.5	12.5	0	
160	12.5	0	
162.5	12.5	0	
165	12.5	0	
167.5	12.5	0	
170	12.5	0	
172.5	12.5	0	
175	12.5	0	
177.5	12.5	0	
180	12.5	0	
182.5	12.5	0	
185	12.5	0	
187.5	12.5	0	
190	12.5	0	
192.5	12.5	0	
195	12.5	0	
197.5	12.5	0	
200	12.5	0	
202.5	12.5	0	
205	12.5	0	
207.5	12.5	0	
210	12.5	0	
212.5	12.5	0	
215	12.5	0	
217.5	12.5	0	
220	12.5	0	
222.5	12.5	0	
225	12.5	0	
227.5	12.5	0	
230	12.5	0	
232.5	12.5	0	
235	12.5	0	
237.5	12.5	0	
240	12.5	0	
242.5	12.5	0	
245	12.5	0	
247.5	12.5	0	
250	12.5	0	
0	15	0	
2.5	15	0	
5	15	0	
7.5	15	0	
10	15	0	
12.5	15	0	
15	15	0	
17.5	15	0	
20	15	0	
22.5	15	0	
25	15	0	
27.5	15	0	
30	15	0	
32.5	15	0	
35	15	0	
37.5	15	0	
40	15	0	
42.5	15	0	
45	15	0	
47.5	15	0	
50	15	0	
52.5	15	0	
55	15	0	
57.5	15	0	
60	15	0	
62.5	15	0	
65	15	0	
67.5	15	0	
70	15	0	
72.5	15	0	
75	15	0	
77.5	15	0	
80	15	0	
82.5	15	0	
85	15	0	
87.5	15	0	
90	15	0	
92.5	15	0	
95	15	0	
97.5	15	0	
100	15	0	
102.5	15	0	
105	15	0	
107.5	15	0	
110	15	0	
112.5	15	0	
115	15	0	
117.5	15	0	
120	15	0	
122.5	15	0	
125	15	0	
127.5	15	0	
130	15	0	
132.5	15	0	
135	15	0	
137.5	15	0	
140	15	0	
142.5	15	0	
145	15	0	
147.5	15	0	
150	15	0	
152.5	15	0	
155	15	0	
157.5	15	0	
160	15	0	
162.5	15	0	
165	15	0	
167.5	15	0	
170	15	0	
172.5	15	0	
175	15	0	
177.5	15	0	
180	15	0	
182.5	15	0	
185	15	0	
187.5	15	0	
190	15	0	
192.5	15	0	
195	15	0	
197.5	15	0	
200	15	0	
202.5	15	0	
205	15	0	
207.5	15	0	
210	15	0	
212.5	15	0	
215	15	0	
217.5	15	0	
220	15	0	
222.5	15	0	
225	15	0	
227.5	15	0	
230	15	0	
232.5	15	0	
235	15	0	
237.5	15	0	
240	15	0	
242.5	15	0	
245	15	0	
247.5	15	0	
250	15	0	
0	17.5	0	
2.5	17.5	0	
5	17.5	0	
7.5	17.5	0	
10	17.5	0	
12.5	17.5	0	
15	17.5	0	
17.5	17.5	0	
20	17.5	0	
22.5	17.5	0	
25	17.5	0	
27.5	17.5	0	
30	17.5	0	
32.5	17.5	0	
35	17.5	0	
37.5	17.5	0	
40	17.5	0	
42.5	17.5	0	
45	17.5	0	
47.5	17.5	0	
50	17.5	0	
52.5	17.5	0	
55	17.5	0	
57.5	17.5	0	
60	17.5	0	
62.5	17.5	0	
65	17.5	0	
67.5	17.5	0	
70	17.5	0	
72.5	17.5	0	
75	17.5	0	
77.5	17.5	0	
80	17.5	0	
82.5	17.5	0	
85	17.5	0	
87.5	17.5	0	
90	17.5	0	
92.5	17.5	0	
95	17.5	0	
97.5	17.5	0	
100	17.5	0	
102.5	17.5	0	
105	17.5	0	
107.5	17.5	0	
110	17.5	0	
112.5	17.5	0	
115	17.5	0	
117.5	17.5	0	
120	17.5	0	
122.5	17.5	0	
125	17.5	0	
127.5	17.5	0	
130	17.5	0	
132.5	17.5	0	
135	17.5	0	
137.5	17.5	0	
140	17.5	0	
142.5	17.5	0	
145	17.5	0	
147.5	17.5	0	
150	17.5	0	
152.5	17.5	0	
155	17.5	0	
157.5	17.5	0	
160	17.5	0	
162.5	17.5	0	
165	17.5	0	
167.5	17.5	0	
170	17.5	0	
172.5	17.5	0	
175	17.5	0	
177.5	17.5	0	
180	17.5	0	
182.5	17.5	0	
185	17.5	0	
187.5	17.5	0	
190	17.5	0	
192.5	17.5	0	
195	17.5	0	
197.5	17.5	0	
200	17.5	0	
202.5	17.5	0	
205	17.5	0	
207.5	17.5	0	
210	17.5	0	
212.5	17.5	0	
215	17.5	0	
217.5	17.5	0	
220	17.5	0	
222.5	17.5	0	
225	17.5	0	
227.5	17.5	0	
230	17.5	0	
232.5	17.5	0	
235	17.5	0	
237.5	17.5	0	
240	17.5	0	
242.5	17.5	0	
245	17.5	0	
247.5	17.5	0	
250	17.5	0	
0	20	0	
2.5	20	0	
5	20	0	
7.5	20	0	
10	20	0	
12.5	20	0	
15	20	0	
17.5	20	0	
20	20	0	
22.5	20	0	
25	20	0	
27.5	20	0	
30	20	0	
32.5	20	0	
35	20	0	
37.5	20	0	
40	20	0	
42.5	20	0	
45	20	0	
47.5	20	0	
50	20	0	
52.5	20	0	
55	20	0	
57.5	20	0	
60	20	0	
62.5	20	0	
65	20	0	
67.5	20	0	
70	20	0	
72.5	20	0	
75	20	0	
77.5	20	0	
80	20	0	
82.5	20	0	
85	20	0	
87.5	20	0	
90	20	0	
92.5	20	0	
95	20	0	
97.5	20	0	
100	20	0	
102.5	20	0	
105	20	0	
107.5	20	0	
110	20	0	
112.5	20	0	
115	20	0	
117.5	20	0	
120	20	0	
122.5	20	0	
125	20	0	
127.5	20	0	
130	20	0	
132.5	20	0	
135	20	0	
137.5	20	0	
140	20	0	
142.5	20	0	
145	20	0	
147.5	20	0	
150	20	0	
152.5	20	0	
155	20	0	
157.5	20	0	
160	20	0	
162.5	20	0	
165	20	0	
167.5	20	0	
170	20	0	
172.5	20	0	
175	20	0	
177.5	20	0	
180	20	0	
182.5	20	0	
185	20	0	
187.5	20	0	
190	20	0	
192.5	20	0	
195	20	0	
197.5	20	0	
200	20	0	
202.5	20	0	
205	20	0	
207.5	20	0	
210	20	0	
212.5	20	0	
215	20	0	
217.5	20	0	
220	20	0	
222.5	20	0	
225	20	0	
227.5	20	0	
230	20	0	
[...]
CELL_DATA	10000
SCALARS Rho0 float
LOOKUP_TABLE default
1
1
1
1
1
1e-10
1
1
1
1e-10
1e-10
1e-10
1e-10
1e-10
1e-10
1e-10
1e-10
1e-10
1e-10
1e-10
1e-10
1e-10
1e-10
1e-10
1e-10
1e-10
1e-10
1e-10
1e-10
1e-10
1e-10
1e-10
1e-10
1e-10
1e-10
1e-10
1e-10
1e-10
1e-10
1e-10
1e-10
1e-10
1e-10
1e-10
1e-10
1e-10
1e-10
1e-10
1e-10
1e-10
1e-10
1e-10
1e-10
1e-10
1e-10
1e-10
1e-10
1e-10
1e-10
1e-10
1e-10
1e-10
1e-10
1e-10
1e-10
1e-10
1e-10
1e-10
1e-10
1e-10
1e-10
1e-10
1e-10
1e-10
1e-10
1e-10
1e-10
1e-10
1e-10
1e-10
1e-10
1e-10
1e-10
1e-10
1e-10
1e-10
1e-10
1e-10
1e-10
1e-10
1e-10
1
1
1
1e-10
1
1
1
1
1
1
1
1
1
1
1e-10
1
1
1
1e-10
1e-10
1e-10
1e-10
1e-10
1e-10
1e-10
1e-10
1e-10
1e-10
1e-10
1e-10
1e-10
1e-10
1e-10
1e-10
1e-10
1e-10
1e-10
1e-10
1e-10
1e-10
1e-10
1e-10
1e-10
1e-10
1e-10
1e-10
1e-10
1e-10
1e-10
1e-10
1e-10
1e-10
1e-10
1e-10
1e-10
1e-10
1e-10
1e-10
1e-10
1e-10
1e-10
1e-10
1e-10
1e-10
1e-10
1e-10
1e-10
1e-10
1e-10
1e-10
1e-10
1e-10
1e-10
1e-10
1e-10
1e-10
1e-10
1e-10
1e-10
1e-10
1e-10
1e-10
1e-10
1e-10
1e-10
1e-10
1e-10
1e-10
1e-10
1e-10
1e-10
1e-10
1e-10
1e-10
1e-10
1e-10
1e-10
1e-10
1e-10
1e-10
1
1
1
1e-10
1
1
1
1
1
1
1
1
1
1
1e-10
1
1
1
1e-10
1e-10
1e-10
1e-10
1e-10
1e-10
1e-10
1e-10
1e-10
1e-10
1e-10
1e-10
1e-10
1e-10
1e-10
1e-10
1e-10
1e-10
1e-10
1e-10
1e-10
1e-10
1e-10
1e-10
1e-10
1e-10
1e-10
1e-10
1e-10
1e-10
1e-10
1e-10
1e-10
1e-10
1e-10
1e-10
1e-10
1e-10
1e-10
1e-10
1e-10
1e-10
1e-10
1e-10
1e-10
1e-10
1e-10
1e-10
1e-10
1e-10
1e-10
1e-10
1e-10
1e-10
1e-10
1e-10
1e-10
1e-10
1e-10
1e-10
1e-10
1e-10
1e-10
1e-10
1e-10
1e-10
1e-10
1e-10
1e-10
1e-10
1e-10
1e-10
1e-10
1e-10
1e-10
1e-10
1e-10
1e-10
1e-10
1e-10
1e-10
1e-10
1
1
1
1e-10
1
1
1
1
1
1
1
1
1
1
1
1
1e-10
1
1
1e-10
1e-10
1e-10
1e-10
1e-10
1e-10
1e-10
1e-10
1e-10
1e-10
1e-10
1e-10
1e-10
1e-10
1e-10
1e-10
1e-10
1e-10
1e-10
1e-10
1e-10
1e-10
1e-10
1e-10
1e-10
1e-10
1e-10
1e-10
1e-10
1e-10
1e-10
1e-10
1e-10
1e-10
1e-10
1e-10
1e-10
1e-10
1e-10
1e-10
1e-10
1e-10
1e-10
1e-10
1e-10
1e-10
1e-10
1e-10
1e-10
1e-10
1e-10
1e-10
1e-10
1e-10
1e-10
1e-10
1e-10
1e-10
1e-10
1e-10
1e-10
1e-10
1e-10
1e-10
1e-10
1e-10
1e-10
1e-10
1e-10
1e-10
1e-10
1e-10
1e-10
1e-10
1e-10
1e-10
1e-10
1e-10
1e-10
1e-10
1
1
1e-10
1
1
1
1
1
1
1
1
1
1
1
1
1
1e-10
1e-10
1e-10
1
1
1e-10
1e-10
1e-10
1
1e-10
1e-10
1e-10
1e-10
1e-10
1e-10
1e-10
1e-10
1e-10
1e-10
1e-10
1e-10
1e-10
1e-10
1e-10
1e-10
1e-10
1e-10
1e-10
1e-10
1e-10
1e-10
1e-10
1e-10
1e-10
1e-10
1e-10
1e-10
1e-10
1e-10
1e-10
1e-10
1e-10
1e-10
1e-10
1e-10
1e-10
1e-10
1e-10
1e-10
1e-10
1e-10
1e-10
1e-10
1e-10
1e-10
1e-10
1e-10
1e-10
1e-10
1e-10
1e-10
1e-10
1e-10
1e-10
1e-10
1e-10
1e-10
1e-10
1e-10
1e-10
1e-10
1e-10
1e-10
1e-10
1e-10
1e-10
1e-10
1e-10
1e-10
1
1e-10
1e-10
1e-10
1
1
1e-10
1e-10
1e-10
1
1
1
1
1
1
1
1
1
1
1
1
1e-10
1e-10
1e-10
1
1
1e-10
1e-10
1e-10
1
1e-10
1e-10
1e-10
1e-10
1e-10
1e-10
1e-10
1e-10
1e-10
1e-10
1e-10
1e-10
1e-10
1e-10
1e-10
1e-10
1e-10
1e-10
1e-10
1e-10
1e-10
1e-10
1e-10
1e-10
1e-10
1e-10
1e-10
1e-10
1e-10
1e-10
1e-10
1e-10
1e-10
1e-10
1e-10
1e-10
1e-10
1e-10
1e-10
1e-10
1e-10
1e-10
1e-10
1e-10
1e-10
1e-10
1e-10
1e-10
1e-10
1e-10
1e-10
1e-10
1e-10
1e-10
1e-10
1e-10
1e-10
1e-10
1e-10
1e-10
1e-10
1e-10
1e-10
1e-10
1e-10
1e-10
1e-10
1e-10
1e-10
1e-10
1
1e-10
1e-10
1e-10
1
1
1e-10
1e-10
1e-10
1
1
1
1
1
1
1
1
1
1
1
1
1e-10
1e-10
1e-10
1
1
1e-10
1e-10
1e-10
1
1
1e-10
1e-10
1e-10
1
1e-10
1e-10
1e-10
1e-10
1e-10
1e-10
1e-10
1e-10
1e-10
1e-10
1e-10
1e-10
1e-10
1e-10
1e-10
1e-10
1e-10
1e-10
1e-10
1e-10
1e-10
1e-10
1e-10
1e-10
1e-10
1e-10
1e-10
1e-10
1e-10
1e-10
1e-10
1e-10
1e-10
1e-10
1e-10
1e-10
1e-10
1e-10
1e-10
1e-10
1e-10
1e-10
1e-10
1e-10
1e-10
1e-10
1e-10
1e-10
1e-10
1e-10
1e-10
1e-10
1e-10
1e-10
1e-10
1e-10
1e-10
1e-10
1e-10
1e-10
1
1e-10
1e-10
1e-10
1
1
1e-10
1e-10
1e-10
1
1
1e-10
1e-10
1e-10
1
1
1
1
1
1
1
1
1
1
1
1
1e-10
1e-10
1e-10
1
1
1e-10
1e-10
1e-10
1
1
1e-10
1e-10
1e-10
1
1e-10
1e-10
1e-10
1e-10
1e-10
1e-10
1e-10
1e-10
1e-10
1e-10
1e-10
1e-10
1e-10
1e-10
1e-10
1e-10
1e-10
1e-10
1e-10
1e-10
1e-10
1e-10
1e-10
1e-10
1e-10
1e-10
1e-10
1e-10
1e-10
1e-10
1e-10
1e-10
1e-10
1e-10
1e-10
1e-10
1e-10
1e-10
1e-10
1e-10
1e-10
1e-10
1e-10
1e-10
1e-10
1e-10
1e-10
1e-10
1e-10
1e-10
1e-10
1e-10
1e-10
1e-10
1e-10
1e-10
1e-10
1e-10
1e-10
1e-10
1
1e-10
1e-10
1e-10
1
1
1e-10
1e-10
1e-10
1
1
1e-10
1e-10
1e-10
1
1
1
1
1
1
1
1
1
1
1
1
1e-10
1e-10
1e-10
1
1
1e-10
1e-10
1e-10
1
1
1e-10
1e-10
1e-10
1
1
1e-10
1e-10
1e-10
1
1e-10
1e-10
1e-10
1e-10
1e-10
1e-10
1e-10
1e-10
1e-10
1e-10
1e-10
1e-10
1e-10
1e-10
1e-10
1e-10
1e-10
1e-10
1e-10
1e-10
1e-10
1e-10
1e-10
1e-10
1e-10
1e-10
1e-10
1e-10
1e-10
1e-10
1e-10
1e-10
1e-10
1e-10
1e-10
1e-10
1e-10
1e-10
1e-10
1e-10
1e-10
1e-10
1e-10
1e-10
1e-10
1e-10
1e-10
1e-10
1e-10
1e-10
1
1e-10
1e-10
1e-10
1
1
1e-10
1e-10
1e-10
1
1
1e-10
1e-10
1e-10
1
1
1e-10
1e-10
1e-10
1
1
1
1
1
1
1
1
1
1
1
1
1e-10
1e-10
1e-10
1
1
1e-10
1e-10
1e-10
1
1
1e-10
1e-10
1e-10
1
1
1e-10
1e-10
1e-10
1
1.7288e-05
1e-10
1e-10
1e-10
1.7452e-05
1e-10
1e-10
1e-10
1e-10
1e-10
1e-10
1e-10
1e-10
1e-10
1e-10
1e-10
1e-10
1e-10
1e-10
1e-10
1e-10
1e-10
1e-10
1e-10
1e-10
1e-10
1e-10
1e-10
1e-10
1e-10
1e-10
1e-10
1e-10
1e-10
1e-10
1e-10
1e-10
1e-10
1e-10
1e-10
1e-10
1e-10
1e-10
1e-10
1e-10
1.77077e-05
1e-10
1e-10
1e-10
1.70235e-05
1
1e-10
1e-10
1e-10
1
1
1e-10
1e-10
1e-10
1
1
1e-10
1e-10
1e-10
1
1
1e-10
1e-10
1e-10
1
1
1
1
1
1
1
1
1
1
1
1
1e-10
1e-10
1e-10
1
1
1e-10
1e-10
1e-10
1
1
1e-10
1e-10
1e-10
1
1
1e-10
1e-10
1e-10
1
0.757785
1e-10
1e-10
1e-10
0.757937
1e-10
1e-10
1e-10
1e-10
1e-10
1e-10
1e-10
1e-10
1e-10
1e-10
1e-10
1e-10
1e-10
1e-10
1e-10
1e-10
1e-10
1e-10
1e-10
1e-10
1e-10
1e-10
1e-10
1e-10
1e-10
1e-10
1e-10
1e-10
1e-10
1e-10
1e-10
1e-10
1e-10
1e-10
1e-10
1e-10
1e-10
1e-10
1e-10
1e-10
0.75784
1e-10
1e-10
1e-10
0.75789
1
1e-10
1e-10
1e-10
1
1
1e-10
1e-10
1e-10
1
1
1e-10
1e-10
1e-10
1
1
1e-10
1e-10
1e-10
1
1
1
1
1
1
1
1
1
1
1
1e-10
1e-10
1e-10
1e-10
1e-10
1
1e-10
1e-10
1e-10
1
1
1e-10
1e-10
1e-10
1
1
1e-10
1e-10
1e-10
1
1
1e-10
1e-10
1e-10
1
6.53924e-06
1e-10
1e-10
1e-10
6.58521e-06
1e-10
1e-10
1e-10
1e-10
1e-10
1e-10
1e-10
1e-10
1e-10
1e-10
1e-10
1e-10
1e-10
1e-10
1e-10
1e-10
1e-10
1e-10
1e-10
1e-10
1e-10
1e-10
1e-10
1e-10
1e-10
1e-10
1e-10
1e-10
1e-10
1e-10
6.55993e-06
1e-10
1e-10
1e-10
6.57202e-06
1
1e-10
1e-10
1e-10
1
1
1e-10
1e-10
1e-10
1
1
1e-10
1e-10
1e-10
1
1
1e-10
1e-10
1e-10
1
1e-10
1e-10
1e-10
1e-10
1e-10
1
1
1
1
1
1
1
1
1
1
1e-10
1e-10
1e-10
1e-10
1e-10
1
1e-10
1e-10
1e-10
1
1
1e-10
1e-10
1e-10
1
1e-10
1e-10
1e-10
1e-10
1e-10
1
1e-10
1e-10
1e-10
1
0.372272
1e-10
1e-10
1e-10
0.372559
1e-10
1e-10
1e-10
1e-10
1e-10
1e-10
1e-10
1e-10
1e-10
1e-10
1e-10
1e-10
1e-10
1e-10
1e-10
1e-10
1e-10
1e-10
1e-10
1e-10
1e-10
1e-10
1e-10
1e-10
1e-10
1e-10
1e-10
1e-10
1e-10
1e-10
0.372067
1e-10
1e-10
1e-10
0.372806
1
1e-10
1e-10
1e-10
1
1e-10
1e-10
1e-10
1e-10
1e-10
1
1e-10
1e-10
1e-10
1
1
1e-10
1e-10
1e-10
1
1e-10
1e-10
1e-10
1e-10
1e-10
1
1
1
1
1
1
1
1
1
1
1e-10
1e-10
1e-10
1e-10
1e-10
1e-10
1e-10
1e-10
1e-10
1e-10
1
1e-10
1e-10
1e-10
1
1e-10
1e-10
1e-10
1e-10
1e-10
1
1e-10
1e-10
1e-10
1
1
1e-10
1e-10
1e-10
1
0.00833346
1e-10
1e-10
1e-10
0.00836317
1e-10
1e-10
1e-10
1e-10
1e-10
1e-10
1e-10
1e-10
1e-10
1e-10
1e-10
1e-10
1e-10
1e-10
1e-10
1e-10
1e-10
1e-10
1e-10
1e-10
0.00833051
1e-10
1e-10
1e-10
0.00837216
1
1e-10
1e-10
1e-10
1
1
1e-10
1e-10
1e-10
1
1e-10
1e-10
1e-10
1e-10
1e-10
1
1e-10
1e-10
1e-10
1
1e-10
1e-10
1e-10
1e-10
1e-10
1e-10
1e-10
1e-10
1e-10
1e-10
1
1
1
1
1
1
1
1
1
1
1e-10
1e-10
1e-10
1e-10
1e-10
1e-10
1e-10
1e-10
1e-10
1e-10
1
1e-10
1e-10
1e-10
1
1
1e-10
1e-10
1e-10
1
1e-10
1e-10
1e-10
1e-10
1e-10
1
1e-10
1e-10
1e-10
1
0.748048
1e-10
1e-10
1e-10
0.748201
1e-10
1e-10
1e-10
1e-10
1e-10
1e-10
1e-10
1e-10
1e-10
1e-10
1e-10
1e-10
1e-10
1e-10
1e-10
1e-10
1e-10
1e-10
1e-10
1e-10
0.74774
1e-10
1e-10
1e-10
0.748559
1
1e-10
1e-10
1e-10
1
1e-10
1e-10
1e-10
1e-10
1e-10
1
1e-10
1e-10
1e-10
1
1
1e-10
1e-10
1e-10
1
1e-10
1e-10
1e-10
1e-10
1e-10
1e-10
1e-10
1e-10
1e-10
1e-10
1
1
1
1
1
1
1
1
1
1
1e-10
1e-10
1e-10
1e-10
1e-10
1e-10
1e-10
1e-10
1e-10
1e-10
1
1e-10
1e-10
1e-10
1
1
1e-10
1e-10
1e-10
1
1e-10
1e-10
1e-10
1e-10
1e-10
0.894729
1e-10
1e-10
1e-10
0.894861
1
1e-10
1e-10
1e-10
1
0.135836
1e-10
1e-10
1e-10
0.136105
1e-10
1e-10
1e-10
1e-10
1e-10
1e-10
1e-10
1e-10
1e-10
1e-10
0.134968
1e-10
1e-10
1e-10
0.13717
1
1e-10
1e-10
1e-10
1
0.895227
1e-10
1e-10
1e-10
0.894302
1e-10
1e-10
1e-10
1e-10
1e-10
1
1e-10
1e-10
1e-10
1
1
1e-10
1e-10
1e-10
1
1e-10
1e-10
1e-10
1e-10
1e-10
1e-10
1e-10
1e-10
1e-10
1e-10
1
1
1
1
1
1
1
1
1
1
1e-10
1e-10
1e-10
1e-10
1e-10
1e-10
1e-10
1e-10
1e-10
1e-10
1
1e-10
1e-10
1e-10
1
1
1e-10
1e-10
1e-10
1
1
1e-10
1e-10
1e-10
1
1e-10
1e-10
1e-10
1e-10
1e-10
1
1e-10
1e-10
1e-10
1
1
1e-10
1e-10
1e-10
1
0.000617681
1e-10
1e-10
1e-10
0.000626982
0.000619598
1e-10
1e-10
1e-10
0.000626875
1
1e-10
1e-10
1e-10
1
1
1e-10
1e-10
1e-10
1
1e-10
1e-10
1e-10
1e-10
1e-10
1
1e-10
1e-10
1e-10
1
1
1e-10
1e-10
1e-10
1
1
1e-10
1e-10
1e-10
1
1e-10
1e-10
1e-10
1e-10
1e-10
1e-10
1e-10
1e-10
1e-10
1e-10
1
1
1
1
1
1
1
1
1
1
1e-10
1e-10
1e-10
1e-10
1e-10
1e-10
1e-10
1e-10
1e-10
1e-10
1
1e-10
1e-10
1e-10
1
1
1e-10
1e-10
1e-10
1
1
1e-10
1e-10
1e-10
1
1e-10
1e-10
1e-10
1e-10
1e-10
0.522271
1e-10
1e-10
1e-10
0.523658
1
1e-10
1e-10
1e-10
1
0.757145
1e-10
1e-10
1e-10
0.756021
0.755721
1e-10
1e-10
1e-10
0.757555
1
1e-10
1e-10
1e-10
1
0.524175
1e-10
1e-10
1e-10
0.52153
1e-10
1e-10
1e-10
1e-10
1e-10
1
1e-10
1e-10
1e-10
1
1
1e-10
1e-10
1e-10
1
1
1e-10
1e-10
1e-10
1
1e-10
1e-10
1e-10
1e-10
1e-10
1e-10
1e-10
1e-10
1e-10
1e-10
1
1
1
1
1
1
1
1
1
1
1e-10
1e-10
1e-10
1e-10
1e-10
1e-10
1e-10
1e-10
1e-10
1e-10
1
1e-10
1e-10
1e-10
1
1
1e-10
1e-10
1e-10
1
1
1e-10
1e-10
1e-10
1
1
1e-10
1e-10
1e-10
1
1e-10
1e-10
1e-10
1e-10
1e-10
0.987936
1e-10
1e-10
1e-10
0.987983
0.986852
1e-10
1e-10
1e-10
0.987828
0.987815
1e-10
1e-10
1e-10
0.986835
0.988002
1e-10
1e-10
1e-10
0.987878
1e-10
1e-10
1e-10
1e-10
1e-10
1
1e-10
1e-10
1e-10
1
1
1e-10
1e-10
1e-10
1
1
1e-10
1e-10
1e-10
1
1
1e-10
1e-10
1e-10
1
1e-10
1e-10
1e-10
1e-10
1e-10
1e-10
1e-10
1e-10
1e-10
1e-10
1
1
1
1
1
1
1
1
1
1
1e-10
1e-10
1e-10
1e-10
1e-10
1e-10
1e-10
1e-10
1e-10
1e-10
1
1e-10
1e-10
1e-10
1
0.00546061
1e-10
1e-10
1e-10
0.0052386
1
1e-10
1e-10
1e-10
1
1
1e-10
1e-10
1e-10
1
1e-10
1e-10
1e-10
1e-10
1e-10
0.635232
1e-10
1e-10
1e-10
0.636043
0.897945
1e-10
1e-10
1e-10
0.898988
0.896793
1e-10
1e-10
1e-10
0.900158
0.635905
1e-10
1e-10
1e-10
0.635307
1e-10
1e-10
1e-10
1e-10
1e-10
1
1e-10
1e-10
1e-10
1
1
1e-10
1e-10
1e-10
1
0.00539422
1e-10
1e-10
1e-10
0.0052661
1
1e-10
1e-10
1e-10
1
1e-10
1e-10
1e-10
1e-10
1e-10
1e-10
1e-10
1e-10
1e-10
1e-10
1
1
1
1
1
1
1
1
1
1
1e-10
1e-10
1e-10
1e-10
1e-10
1e-10
1e-10
1e-10
1e-10
1e-10
1
1e-10
1e-10
1e-10
1
1e-10
1e-10
1e-10
1e-10
1e-10
0.910825
1e-10
1e-10
1e-10
0.909672
1
1e-10
1e-10
1e-10
1
0.89953
1e-10
1e-10
1e-10
0.900239
0.757709
1e-10
1e-10
1e-10
0.758266
0.572355
1e-10
1e-10
1e-10
0.571898
0.57273
1e-10
1e-10
1e-10
0.571528
0.757153
1e-10
1e-10
1e-10
0.758857
0.899794
1e-10
1e-10
1e-10
0.899945
1
1e-10
1e-10
1e-10
1
0.910633
1e-10
1e-10
1e-10
0.909888
1e-10
1e-10
1e-10
1e-10
1e-10
1
1e-10
1e-10
1e-10
1
1e-10
1e-10
1e-10
1e-10
1e-10
1e-10
1e-10
1e-10
1e-10
1e-10
1
1
1
1
1
1
1
1
1
1
1e-10
1e-10
1e-10
1e-10
1e-10
1e-10
1e-10
1e-10
1e-10
1e-10
1
1e-10
1e-10
1e-10
1
1e-10
1e-10
1e-10
1e-10
1e-10
1e-10
1e-10
1e-10
1e-10
1e-10
1
1e-10
1e-10
1e-10
1
1
1e-10
1e-10
1e-10
1
0.000359276
1e-10
1e-10
1e-10
0.000367471
0.811918
1e-10
1e-10
1e-10
0.811548
0.81172
1e-10
1e-10
1e-10
0.81178
0.000359888
1e-10
1e-10
1e-10
0.000365794
1
1e-10
1e-10
1e-10
1
1
1e-10
1e-10
1e-10
1
1e-10
1e-10
1e-10
1e-10
1e-10
1e-10
1e-10
1e-10
1e-10
1e-10
1
1e-10
1e-10
1e-10
1
1e-10
1e-10
1e-10
1e-10
1e-10
1e-10
1e-10
1e-10
1e-10
1e-10
1
1
1
1
1
1
1
1
1
1
1e-10
1e-10
1e-10
1e-10
1e-10
1e-10
1e-10
1e-10
1e-10
1e-10
1
1e-10
1e-10
1e-10
1
1e-10
1e-10
1e-10
1e-10
1e-10
1e-10
1e-10
1e-10
1e-10
1e-10
0.921666
1e-10
1e-10
1e-10
0.921299
1
1e-10
1e-10
1e-10
1
1
1e-10
1e-10
1e-10
1
0.592582
1e-10
1e-10
1e-10
0.593105
0.591705
1e-10
1e-10
1e-10
0.593864
1
1e-10
1e-10
1e-10
1
1
1e-10
1e-10
1e-10
1
0.921426
1e-10
1e-10
1e-10
0.921574
1e-10
1e-10
1e-10
1e-10
1e-10
1e-10
1e-10
1e-10
1e-10
1e-10
1
1e-10
1e-10
1e-10
1
1e-10
1e-10
1e-10
1e-10
1e-10
1e-10
1e-10
1e-10
1e-10
1e-10
1
1
1
1
1
1
1
1
1
1
1e-10
1e-10
1e-10
1e-10
1e-10
1e-10
1e-10
1e-10
1e-10
1e-10
1
1e-10
1e-10
1e-10
1
1e-10
1e-10
1e-10
1e-10
1e-10
1e-10
1e-10
1e-10
1e-10
1e-10
0.0140609
1e-10
1e-10
1e-10
0.014006
1
1e-10
1e-10
1e-10
1
1
1e-10
1e-10
1e-10
1
1
1e-10
1e-10
1e-10
1
1
1e-10
1e-10
1e-10
1
1
1e-10
1e-10
1e-10
1
1
1e-10
1e-10
1e-10
1
0.0139475
1e-10
1e-10
1e-10
0.0141061
1e-10
1e-10
1e-10
1e-10
1e-10
1e-10
1e-10
1e-10
1e-10
1e-10
1
1e-10
1e-10
1e-10
1
1e-10
1e-10
1e-10
1e-10
1e-10
1e-10
1e-10
1e-10
1e-10
1e-10
1
1
1
1
1
1
1
1
1
1
1
1e-10
1e-10
1e-10
1
1
1e-10
1e-10
1e-10
1
1
1e-10
1e-10
1e-10
1
1e-10
1e-10
1e-10
1e-10
1e-10
1e-10
1e-10
1e-10
1e-10
1e-10
0.0106365
1e-10
1e-10
1e-10
0.0105643
0.00498053
1e-10
1e-10
1e-10
0.00464244
1
1e-10
1e-10
1e-10
1
1
1e-10
1e-10
1e-10
1
1
1e-10
1e-10
1e-10
1
1
1e-10
1e-10
1e-10
1
0.00500747
1e-10
1e-10
1e-10
0.00461352
0.0105482
1e-10
1e-10
1e-10
0.0106413
1e-10
1e-10
1e-10
1e-10
1e-10
1e-10
1e-10
1e-10
1e-10
1e-10
1
1e-10
1e-10
1e-10
1
1
1e-10
1e-10
1e-10
1
1
1e-10
1e-10
1e-10
1
1
1
1
1
1
1
1
1
1
1
1
1e-10
1e-10
1e-10
1
1
1e-10
1e-10
1e-10
1
1
1e-10
1e-10
1e-10
1
1e-10
1e-10
1e-10
1e-10
1e-10
1e-10
1e-10
1e-10
1e-10
1e-10
0.191683
1e-10
1e-10
1e-10
0.200257
1
1e-10
1e-10
1e-10
1
1
1e-10
1e-10
1e-10
1
1
1e-10
1e-10
1e-10
1
1
1e-10
1e-10
1e-10
1
1
1e-10
1e-10
1e-10
1
1
1e-10
1e-10
1e-10
1
0.188305
1e-10
1e-10
1e-10
0.203773
1e-10
1e-10
1e-10
1e-10
1e-10
1e-10
1e-10
1e-10
1e-10
1e-10
1
1e-10
1e-10
1e-10
1
1
1e-10
1e-10
1e-10
1
1
1e-10
1e-10
1e-10
1
1
1
1
1
1
1
1
1
1
1
1
1e-10
1e-10
1e-10
1
1
1e-10
1e-10
1e-10
1
1
1e-10
1e-10
1e-10
1
0.324362
1e-10
1e-10
1e-10
0.324787
1
1e-10
1e-10
1e-10
1
1
1e-10
1e-10
1e-10
1
1
1e-10
1e-10
1e-10
1
0.795146
1e-10
1e-10
1e-10
0.794138
1e-10
1e-10
1e-10
1e-10
1e-10
1e-10
1e-10
1e-10
1e-10
1e-10
0.795654
1e-10
1e-10
1e-10
0.793599
1
1e-10
1e-10
1e-10
1
1
1e-10
1e-10
1e-10
1
1
1e-10
1e-10
1e-10
1
0.324177
1e-10
1e-10
1e-10
0.324982
1
1e-10
1e-10
1e-10
1
1
1e-10
1e-10
1e-10
1
1
1e-10
1e-10
1e-10
1
1
1
1
1
1
1
1
1
1
1
1
1e-10
1e-10
1e-10
1
1
1e-10
1e-10
1e-10
1
1
1e-10
1e-10
1e-10
1
1
1e-10
1e-10
1e-10
1
1
1e-10
1e-10
1e-10
1
1e-10
1e-10
1e-10
1e-10
1e-10
1e-10
1e-10
1e-10
1e-10
1e-10
1e-10
1e-10
1e-10
1e-10
1e-10
1e-10
1e-10
1e-10
1e-10
1e-10
1e-10
1e-10
1e-10
1e-10
1e-10
1e-10
1e-10
1e-10
1e-10
1e-10
1e-10
1e-10
1e-10
1e-10
1e-10
1e-10
1e-10
1e-10
1e-10
1e-10
1
1e-10
1e-10
1e-10
1
1
1e-10
1e-10
1e-10
1
1
1e-10
1e-10
1e-10
1
1
1e-10
1e-10
1e-10
1
1
1e-10
1e-10
1e-10
1
1
1
1
1
1
1
1
1
1
1
1
1.8418e-09
1e-10
8.42491e-10
1
1
1e-10
1e-10
1e-10
1
1
1e-10
1e-10
1e-10
1
1
1e-10
1e-10
1e-10
1
1e-10
1e-10
1e-10
1e-10
1e-10
1e-10
1e-10
1e-10
1e-10
1e-10
1e-10
1e-10
1e-10
1e-10
1e-10
1e-10
1e-10
1e-10
1e-10
1e-10
1e-10
1e-10
1e-10
1e-10
1e-10
1e-10
1e-10
1e-10
1e-10
1e-10
1e-10
1e-10
1e-10
1e-10
1e-10
1e-10
1e-10
1e-10
1e-10
1e-10
1e-10
1e-10
1e-10
1e-10
1e-10
1e-10
1e-10
1e-10
1e-10
1e-10
1
1e-10
1e-10
1e-10
1
1
1e-10
1e-10
1e-10
1
1
1e-10
1e-10
1e-10
1
1
1.51922e-09
1e-10
1.08117e-09
1
1
1
1
1
1
1
1
1
1
1
1
1
1e-10
1
1
1
1e-10
1e-10
1e-10
1
1
1e-10
1e-10
1e-10
1
1e-10
1e-10
1e-10
1e-10
1e-10
1e-10
1e-10
1e-10
1e-10
1e-10
1e-10
1e-10
1e-10
1e-10
1e-10
1e-10
1e-10
1e-10
1e-10
1e-10
1e-10
1e-10
1e-10
1e-10
1e-10
1e-10
1e-10
1e-10
1e-10
1e-10
1e-10
1e-10
1e-10
1e-10
1e-10
1e-10
1e-10
1e-10
1e-10
1e-10
1e-10
1e-10
1e-10
1e-10
1e-10
1e-10
1e-10
1e-10
1e-10
1e-10
1e-10
1e-10
1e-10
1e-10
1e-10
1e-10
1e-10
1e-10
1e-10
1e-10
1
1e-10
1e-10
1e-10
1
1
1e-10
1e-10
1e-10
1
1
1
1e-10
1
1
1
1
1
1
1
1
1
1
1
1
1
0.975984
1e-10
0.963612
1
1
1e-10
1e-10
1e-10
1
1
1e-10
1e-10
1e-10
1
1e-10
1e-10
1e-10
1e-10
1e-10
1e-10
1e-10
1e-10
1e-10
1e-10
1e-10
1e-10
1e-10
1e-10
1e-10
1e-10
1e-10
1e-10
1e-10
1e-10
1e-10
1e-10
1e-10
1e-10
1e-10
1e-10
1e-10
1e-10
1e-10
1e-10
1e-10
1e-10
1e-10
1e-10
1e-10
1e-10
1e-10
1e-10
1e-10
1e-10
1e-10
1e-10
1e-10
1e-10
1e-10
1e-10
1e-10
1e-10
1e-10
1e-10
1e-10
1e-10
1e-10
1e-10
1e-10
1e-10
1e-10
1e-10
1e-10
1e-10
1
1e-10
1e-10
1e-10
1
1
1e-10
1e-10
1e-10
1
1
0.972613
1e-10
0.967468
1
1
1
1
1
1
1
1
1
1
1
1
2.71434e-09
1e-10
2.42333e-09
1
1
1e-10
1e-10
1e-10
1
1
1e-10
1e-10
1e-10
1
1
1e-10
1e-10
1e-10
1
1e-10
1e-10
1e-10
1e-10
1e-10
1e-10
1e-10
1e-10
1e-10
1e-10
1e-10
1e-10
1e-10
1e-10
1e-10
1e-10
1e-10
1e-10
1e-10
1e-10
1e-10
1e-10
1e-10
1e-10
1e-10
1e-10
1e-10
1e-10
1e-10
1e-10
1e-10
1e-10
1e-10
1e-10
1e-10
1e-10
1e-10
1e-10
1e-10
1e-10
1e-10
1e-10
1e-10
1e-10
1e-10
1e-10
1e-10
1e-10
1e-10
1e-10
1
1e-10
1e-10
1e-10
1
1
1e-10
1e-10
1e-10
1
1
1e-10
1e-10
1e-10
1
1
2.62417e-09
1e-10
2.51969e-09
1
1
1
1
1
1
1
1
1
1
1
1
1e-10
1e-10
1e-10
1
0.953972
1e-10
1e-10
1e-10
0.953151
1
1e-10
1e-10
1e-10
1
1
1e-10
1e-10
1e-10
1
1e-10
1e-10
1e-10
1e-10
1e-10
1e-10
1e-10
1e-10
1e-10
1e-10
1e-10
1e-10
1e-10
1e-10
1e-10
1e-10
1e-10
1e-10
1e-10
1e-10
1e-10
1e-10
1e-10
1e-10
1e-10
1e-10
1e-10
1e-10
1e-10
1e-10
1e-10
1e-10
1e-10
1e-10
1e-10
1e-10
1e-10
1e-10
1e-10
1e-10
1e-10
1e-10
1e-10
1e-10
1e-10
1e-10
1e-10
1e-10
1e-10
1e-10
1
1e-10
1e-10
1e-10
1
1
1e-10
1e-10
1e-10
1
0.953719
1e-10
1e-10
1e-10
0.953437
1
1e-10
1e-10
1e-10
1
1
1
1
1
1
1
1
1
1
1
1e-10
1e-10
1e-10
1e-10
1e-10
1e-10
1e-10
1e-10
1e-10
1e-10
0.709053
1e-10
1e-10
1e-10
0.709068
1
1e-10
1e-10
1e-10
1
1
1e-10
1e-10
1e-10
1
1e-10
1e-10
1e-10
1e-10
1e-10
1e-10
1e-10
1e-10
1e-10
1e-10
1e-10
1e-10
1e-10
1e-10
1e-10
1e-10
1e-10
1e-10
1e-10
1e-10
1e-10
1e-10
1e-10
1e-10
1e-10
1e-10
1e-10
1e-10
1e-10
1e-10
1e-10
1e-10
1e-10
1e-10
1e-10
1e-10
1e-10
1e-10
1e-10
1e-10
1
1e-10
1e-10
1e-10
1
1
1e-10
1e-10
1e-10
1
0.708968
1e-10
1e-10
1e-10
0.709178
1e-10
1e-10
1e-10
1e-10
1e-10
1e-10
1e-10
1e-10
1e-10
1e-10
1
1
1
1
1
1
1
1
1
1
1e-10
1e-10
1e-10
1e-10
1e-10
1e-10
1e-10
1e-10
1e-10
1e-10
1e-10
1e-10
1e-10
1e-10
1e-10
1
1e-10
1e-10
1e-10
1
1
1e-10
1e-10
1e-10
1
1e-10
1e-10
1e-10
1e-10
1e-10
1e-10
1e-10
1e-10
1e-10
1e-10
1e-10
1e-10
1e-10
1e-10
1e-10
1e-10
1e-10
1e-10
1e-10
1e-10
1e-10
1e-10
1e-10
1e-10
1e-10
1e-10
1e-10
1e-10
1e-10
1e-10
1e-10
1e-10
1e-10
1e-10
1e-10
1e-10
1e-10
1e-10
1e-10
1e-10
1
1e-10
1e-10
1e-10
1
1
1e-10
1e-10
1e-10
1
1e-10
1e-10
1e-10
1e-10
1e-10
1e-10
1e-10
1e-10
1e-10
1e-10
1e-10
1e-10
1e-10
1e-10
1e-10
1
1
1
1
1
1
1
1
1
1
1e-10
1e-10
1e-10
1e-10
1e-10
1e-10
1e-10
1e-10
1e-10
1e-10
1e-10
1e-10
1e-10
1e-10
1e-10
0.00641839
1e-10
1e-10
1e-10
0.00647509
1
1e-10
1e-10
1e-10
1
1
1e-10
1e-10
1e-10
1
1e-10
1e-10
1e-10
1e-10
1e-10
1e-10
1e-10
1e-10
1e-10
1e-10
1e-10
1e-10
1e-10
1e-10
1e-10
1e-10
1e-10
1e-10
1e-10
1e-10
1e-10
1e-10
1e-10
1e-10
1e-10
1e-10
1e-10
1e-10
1e-10
1e-10
1
1e-10
1e-10
1e-10
1
1
1e-10
1e-10
1e-10
1
0.00643087
1e-10
1e-10
1e-10
0.00646125
1e-10
1e-10
1e-10
1e-10
1e-10
1e-10
1e-10
1e-10
1e-10
1e-10
1e-10
1e-10
1e-10
1e-10
1e-10
1
1
1
1
1
1
1
1
1
1
1e-10
1e-10
1e-10
1e-10
1e-10
1e-10
1e-10
1e-10
1e-10
1e-10
1e-10
1e-10
1e-10
1e-10
1e-10
1e-10
1e-10
1e-10
1e-10
1e-10
1
1e-10
1e-10
1e-10
1
1
1e-10
1e-10
1e-10
1
1
1e-10
1e-10
1e-10
1
1e-10
1e-10
1e-10
1e-10
1e-10
1e-10
1e-10
1e-10
1e-10
1e-10
1e-10
1e-10
1e-10
1e-10
1e-10
1e-10
1e-10
1e-10
1e-10
1e-10
1
1e-10
1e-10
1e-10
1
1
1e-10
1e-10
1e-10
1
1
1e-10
1e-10
1e-10
1
1e-10
1e-10
1e-10
1e-10
1e-10
1e-10
1e-10
1e-10
1e-10
1e-10
1e-10
1e-10
1e-10
1e-10
1e-10
1e-10
1e-10
1e-10
1e-10
1e-10
1
1
1
1
1
1
1
1
1
1
1e-10
1e-10
1e-10
1e-10
1e-10
1e-10
1e-10
1e-10
1e-10
1e-10
1e-10
1e-10
1e-10
1e-10
1e-10
1e-10
1e-10
1e-10
1e-10
1e-10
1e-10
1e-10
1e-10
1e-10
1e-10
1
1e-10
1e-10
1e-10
1
1
1e-10
1e-10
1e-10
1
1e-10
1e-10
1e-10
1e-10
1e-10
1e-10
1e-10
1e-10
1e-10
1e-10
1e-10
1e-10
1e-10
1e-10
1e-10
1e-10
1e-10
1e-10
1e-10
1e-10
1
1e-10
1e-10
1e-10
1
1
1e-10
1e-10
1e-10
1
1e-10
1e-10
1e-10
1e-10
1e-10
1e-10
1e-10
1e-10
1e-10
1e-10
1e-10
1e-10
1e-10
1e-10
1e-10
1e-10
1e-10
1e-10
1e-10
1e-10
1e-10
1e-10
1e-10
1e-10
1e-10
1
1
1
1
1
1
1
1
1
1
1e-10
1e-10
1e-10
1e-10
1e-10
1e-10
1e-10
1e-10
1e-10
1e-10
1e-10
1e-10
1e-10
1e-10
1e-10
1e-10