# vtk DataFile Version 4.1
vtk output
ASCII
DATASET UNSTRUCTURED_GRID

POINTS	30633	float
0	0	0	
2.5	0	0	
5	0	0	
7.5	0	0	
10	0	0	
12.5	0	0	
15	0	0	
17.5	0	0	
20	0	0	
22.5	0	0	
25	0	0	
27.5	0	0	
30	0	0	
32.5	0	0	
35	0	0	
37.5	0	0	
40	0	0	
42.5	0	0	
45	0	0	
47.5	0	0	
50	0	0	
52.5	0	0	
55	0	0	
57.5	0	0	
60	0	0	
62.5	0	0	
65	0	0	
67.5	0	0	
70	0	0	
72.5	0	0	
75	0	0	
77.5	0	0	
80	0	0	
82.5	0	0	
85	0	0	
87.5	0	0	
90	0	0	
92.5	0	0	
95	0	0	
97.5	0	0	
100	0	0	
102.5	0	0	
105	0	0	
107.5	0	0	
110	0	0	
112.5	0	0	
115	0	0	
117.5	0	0	
120	0	0	
122.5	0	0	
125	0	0	
127.5	0	0	
130	0	0	
132.5	0	0	
135	0	0	
137.5	0	0	
140	0	0	
142.5	0	0	
145	0	0	
147.5	0	0	
150	0	0	
152.5	0	0	
155	0	0	
157.5	0	0	
160	0	0	
162.5	0	0	
165	0	0	
167.5	0	0	
170	0	0	
172.5	0	0	
175	0	0	
177.5	0	0	
180	0	0	
182.5	0	0	
185	0	0	
187.5	0	0	
190	0	0	
192.5	0	0	
195	0	0	
197.5	0	0	
200	0	0	
202.5	0	0	
205	0	0	
207.5	0	0	
210	0	0	
212.5	0	0	
0	2.5	0	
2.5	2.5	0	
5	2.5	0	
7.5	2.5	0	
10	2.5	0	
12.5	2.5	0	
15	2.5	0	
17.5	2.5	0	
20	2.5	0	
22.5	2.5	0	
25	2.5	0	
27.5	2.5	0	
30	2.5	0	
32.5	2.5	0	
35	2.5	0	
37.5	2.5	0	
40	2.5	0	
42.5	2.5	0	
45	2.5	0	
47.5	2.5	0	
50	2.5	0	
52.5	2.5	0	
55	2.5	0	
57.5	2.5	0	
60	2.5	0	
62.5	2.5	0	
65	2.5	0	
67.5	2.5	0	
70	2.5	0	
72.5	2.5	0	
75	2.5	0	
77.5	2.5	0	
80	2.5	0	
82.5	2.5	0	
85	2.5	0	
87.5	2.5	0	
90	2.5	0	
92.5	2.5	0	
95	2.5	0	
97.5	2.5	0	
100	2.5	0	
102.5	2.5	0	
105	2.5	0	
107.5	2.5	0	
110	2.5	0	
112.5	2.5	0	
115	2.5	0	
117.5	2.5	0	
120	2.5	0	
122.5	2.5	0	
125	2.5	0	
127.5	2.5	0	
130	2.5	0	
132.5	2.5	0	
135	2.5	0	
137.5	2.5	0	
140	2.5	0	
142.5	2.5	0	
145	2.5	0	
147.5	2.5	0	
150	2.5	0	
152.5	2.5	0	
155	2.5	0	
157.5	2.5	0	
160	2.5	0	
162.5	2.5	0	
165	2.5	0	
167.5	2.5	0	
170	2.5	0	
172.5	2.5	0	
175	2.5	0	
177.5	2.5	0	
180	2.5	0	
182.5	2.5	0	
185	2.5	0	
187.5	2.5	0	
190	2.5	0	
192.5	2.5	0	
195	2.5	0	
197.5	2.5	0	
200	2.5	0	
202.5	2.5	0	
205	2.5	0	
207.5	2.5	0	
210	2.5	0	
212.5	2.5	0	
215	2.5	0	
217.5	2.5	0	
0	5	0	
2.5	5	0	
5	5	0	
7.5	5	0	
10	5	0	
12.5	5	0	
15	5	0	
17.5	5	0	
20	5	0	
22.5	5	0	
25	5	0	
27.5	5	0	
30	5	0	
32.5	5	0	
35	5	0	
37.5	5	0	
40	5	0	
42.5	5	0	
45	5	0	
47.5	5	0	
50	5	0	
52.5	5	0	
55	5	0	
57.5	5	0	
60	5	0	
62.5	5	0	
65	5	0	
67.5	5	0	
70	5	0	
72.5	5	0	
75	5	0	
77.5	5	0	
80	5	0	
82.5	5	0	
85	5	0	
87.5	5	0	
90	5	0	
92.5	5	0	
95	5	0	
97.5	5	0	
100	5	0	
102.5	5	0	
105	5	0	
107.5	5	0	
110	5	0	
112.5	5	0	
115	5	0	
117.5	5	0	
120	5	0	
122.5	5	0	
125	5	0	
127.5	5	0	
130	5	0	
132.5	5	0	
135	5	0	
137.5	5	0	
140	5	0	
142.5	5	0	
145	5	0	
147.5	5	0	
150	5	0	
152.5	5	0	
155	5	0	
157.5	5	0	
160	5	0	
162.5	5	0	
165	5	0	
167.5	5	0	
170	5	0	
182.5	5	0	
185	5	0	
187.5	5	0	
190	5	0	
192.5	5	0	
195	5	0	
197.5	5	0	
200	5	0	
202.5	5	0	
205	5	0	
207.5	5	0	
210	5	0	
212.5	5	0	
215	5	0	
217.5	5	0	
220	5	0	
222.5	5	0	
0	7.5	0	
2.5	7.5	0	
5	7.5	0	
7.5	7.5	0	
10	7.5	0	
12.5	7.5	0	
15	7.5	0	
17.5	7.5	0	
20	7.5	0	
22.5	7.5	0	
25	7.5	0	
27.5	7.5	0	
30	7.5	0	
32.5	7.5	0	
35	7.5	0	
37.5	7.5	0	
40	7.5	0	
42.5	7.5	0	
45	7.5	0	
47.5	7.5	0	
50	7.5	0	
52.5	7.5	0	
55	7.5	0	
57.5	7.5	0	
60	7.5	0	
62.5	7.5	0	
65	7.5	0	
67.5	7.5	0	
70	7.5	0	
72.5	7.5	0	
75	7.5	0	
77.5	7.5	0	
80	7.5	0	
82.5	7.5	0	
85	7.5	0	
87.5	7.5	0	
90	7.5	0	
92.5	7.5	0	
95	7.5	0	
97.5	7.5	0	
100	7.5	0	
102.5	7.5	0	
105	7.5	0	
107.5	7.5	0	
110	7.5	0	
112.5	7.5	0	
115	7.5	0	
117.5	7.5	0	
120	7.5	0	
122.5	7.5	0	
140	7.5	0	
142.5	7.5	0	
145	7.5	0	
147.5	7.5	0	
150	7.5	0	
152.5	7.5	0	
155	7.5	0	
157.5	7.5	0	
160	7.5	0	
162.5	7.5	0	
165	7.5	0	
167.5	7.5	0	
170	7.5	0	
172.5	7.5	0	
175	7.5	0	
177.5	7.5	0	
180	7.5	0	
182.5	7.5	0	
185	7.5	0	
187.5	7.5	0	
190	7.5	0	
192.5	7.5	0	
195	7.5	0	
197.5	7.5	0	
200	7.5	0	
202.5	7.5	0	
205	7.5	0	
207.5	7.5	0	
210	7.5	0	
212.5	7.5	0	
215	7.5	0	
217.5	7.5	0	
220	7.5	0	
222.5	7.5	0	
225	7.5	0	
227.5	7.5	0	
7.5	10	0	
10	10	0	
12.5	10	0	
15	10	0	
17.5	10	0	
20	10	0	
22.5	10	0	
25	10	0	
27.5	10	0	
30	10	0	
32.5	10	0	
35	10	0	
37.5	10	0	
40	10	0	
42.5	10	0	
45	10	0	
47.5	10	0	
50	10	0	
52.5	10	0	
55	10	0	
57.5	10	0	
60	10	0	
62.5	10	0	
65	10	0	
67.5	10	0	
70	10	0	
72.5	10	0	
75	10	0	
77.5	10	0	
80	10	0	
82.5	10	0	
85	10	0	
87.5	10	0	
90	10	0	
92.5	10	0	
95	10	0	
97.5	10	0	
100	10	0	
102.5	10	0	
105	10	0	
107.5	10	0	
110	10	0	
112.5	10	0	
115	10	0	
117.5	10	0	
120	10	0	
122.5	10	0	
125	10	0	
127.5	10	0	
130	10	0	
132.5	10	0	
135	10	0	
137.5	10	0	
140	10	0	
142.5	10	0	
145	10	0	
147.5	10	0	
150	10	0	
152.5	10	0	
155	10	0	
157.5	10	0	
160	10	0	
162.5	10	0	
165	10	0	
167.5	10	0	
170	10	0	
172.5	10	0	
175	10	0	
177.5	10	0	
180	10	0	
182.5	10	0	
185	10	0	
187.5	10	0	
190	10	0	
192.5	10	0	
195	10	0	
197.5	10	0	
212.5	10	0	
215	10	0	
217.5	10	0	
220	10	0	
222.5	10	0	
225	10	0	
227.5	10	0	
230	10	0	
20	12.5	0	
22.5	12.5	0	
25	12.5	0	
27.5	12.5	0	
30	12.5	0	
32.5	12.5	0	
35	12.5	0	
37.5	12.5	0	
40	12.5	0	
42.5	12.5	0	
45	12.5	0	
47.5	12.5	0	
50	12.5	0	
52.5	12.5	0	
55	12.5	0	
57.5	12.5	0	
60	12.5	0	
62.5	12.5	0	
65	12.5	0	
67.5	12.5	0	
70	12.5	0	
72.5	12.5	0	
75	12.5	0	
77.5	12.5	0	
80	12.5	0	
82.5	12.5	0	
85	12.5	0	
87.5	12.5	0	
90	12.5	0	
92.5	12.5	0	
95	12.5	0	
97.5	12.5	0	
100	12.5	0	
102.5	12.5	0	
105	12.5	0	
107.5	12.5	0	
110	12.5	0	
112.5	12.5	0	
115	12.5	0	
117.5	12.5	0	
120	12.5	0	
122.5	12.5	0	
125	12.5	0	
127.5	12.5	0	
130	12.5	0	
132.5	12.5	0	
135	12.5	0	
137.5	12.5	0	
140	12.5	0	
142.5	12.5	0	
145	12.5	0	
147.5	12.5	0	
150	12.5	0	
152.5	12.5	0	
155	12.5	0	
157.5	12.5	0	
160	12.5	0	
162.5	12.5	0	
165	12.5	0	
167.5	12.5	0	
170	12.5	0	
172.5	12.5	0	
175	12.5	0	
177.5	12.5	0	
180	12.5	0	
182.5	12.5	0	
185	12.5	0	
187.5	12.5	0	
190	12.5	0	
217.5	12.5	0	
220	12.5	0	
222.5	12.5	0	
225	12.5	0	
227.5	12.5	0	
230	12.5	0	
232.5	12.5	0	
235	12.5	0	
25	15	0	
27.5	15	0	
30	15	0	
32.5	15	0	
35	15	0	
37.5	15	0	
40	15	0	
42.5	15	0	
45	15	0	
47.5	15	0	
50	15	0	
52.5	15	0	
55	15	0	
57.5	15	0	
60	15	0	
62.5	15	0	
65	15	0	
67.5	15	0	
70	15	0	
72.5	15	0	
75	15	0	
77.5	15	0	
80	15	0	
82.5	15	0	
85	15	0	
87.5	15	0	
90	15	0	
92.5	15	0	
95	15	0	
97.5	15	0	
100	15	0	
102.5	15	0	
105	15	0	
107.5	15	0	
110	15	0	
112.5	15	0	
115	15	0	
117.5	15	0	
120	15	0	
122.5	15	0	
125	15	0	
127.5	15	0	
130	15	0	
132.5	15	0	
135	15	0	
137.5	15	0	
140	15	0	
142.5	15	0	
145	15	0	
147.5	15	0	
150	15	0	
152.5	15	0	
155	15	0	
157.5	15	0	
160	15	0	
162.5	15	0	
165	15	0	
167.5	15	0	
170	15	0	
172.5	15	0	
175	15	0	
177.5	15	0	
180	15	0	
182.5	15	0	
222.5	15	0	
225	15	0	
227.5	15	0	
230	15	0	
232.5	15	0	
235	15	0	
30	17.5	0	
32.5	17.5	0	
35	17.5	0	
37.5	17.5	0	
40	17.5	0	
42.5	17.5	0	
45	17.5	0	
47.5	17.5	0	
50	17.5	0	
52.5	17.5	0	
55	17.5	0	
57.5	17.5	0	
60	17.5	0	
62.5	17.5	0	
65	17.5	0	
67.5	17.5	0	
70	17.5	0	
72.5	17.5	0	
75	17.5	0	
77.5	17.5	0	
80	17.5	0	
82.5	17.5	0	
85	17.5	0	
87.5	17.5	0	
90	17.5	0	
92.5	17.5	0	
95	17.5	0	
97.5	17.5	0	
100	17.5	0	
102.5	17.5	0	
105	17.5	0	
107.5	17.5	0	
110	17.5	0	
112.5	17.5	0	
115	17.5	0	
117.5	17.5	0	
120	17.5	0	
122.5	17.5	0	
125	17.5	0	
127.5	17.5	0	
130	17.5	0	
132.5	17.5	0	
135	17.5	0	
137.5	17.5	0	
140	17.5	0	
142.5	17.5	0	
145	17.5	0	
147.5	17.5	0	
150	17.5	0	
152.5	17.5	0	
157.5	17.5	0	
160	17.5	0	
162.5	17.5	0	
172.5	17.5	0	
175	17.5	0	
177.5	17.5	0	
180	17.5	0	
182.5	17.5	0	
185	17.5	0	
227.5	17.5	0	
230	17.5	0	
35	20	0	
37.5	20	0	
40	20	0	
42.5	20	0	
45	20	0	
47.5	20	0	
50	20	0	
52.5	20	0	
55	20	0	
57.5	20	0	
60	20	0	
62.5	20	0	
65	20	0	
67.5	20	0	
70	20	0	
72.5	20	0	
75	20	0	
77.5	20	0	
80	20	0	
82.5	20	0	
85	20	0	
87.5	20	0	
90	20	0	
92.5	20	0	
95	20	0	
97.5	20	0	
100	20	0	
102.5	20	0	
105	20	0	
107.5	20	0	
110	20	0	
112.5	20	0	
115	20	0	
117.5	20	0	
125	20	0	
127.5	20	0	
130	20	0	
132.5	20	0	
135	20	0	
137.5	20	0	
140	20	0	
142.5	20	0	
145	20	0	
147.5	20	0	
150	20	0	
152.5	20	0	
155	20	0	
157.5	20	0	
160	20	0	
162.5	20	0	
177.5	20	0	
180	20	0	
182.5	20	0	
185	20	0	
37.5	22.5	0	
40	22.5	0	
42.5	22.5	0	
45	22.5	0	
47.5	22.5	0	
50	22.5	0	
52.5	22.5	0	
55	22.5	0	
57.5	22.5	0	
60	22.5	0	
62.5	22.5	0	
65	22.5	0	
67.5	22.5	0	
70	22.5	0	
72.5	22.5	0	
75	22.5	0	
77.5	22.5	0	
80	22.5	0	
82.5	22.5	0	
85	22.5	0	
87.5	22.5	0	
90	22.5	0	
92.5	22.5	0	
95	22.5	0	
97.5	22.5	0	
100	22.5	0	
102.5	22.5	0	
105	22.5	0	
107.5	22.5	0	
110	22.5	0	
112.5	22.5	0	
115	22.5	0	
117.5	22.5	0	
127.5	22.5	0	
130	22.5	0	
132.5	22.5	0	
135	22.5	0	
137.5	22.5	0	
140	22.5	0	
142.5	22.5	0	
145	22.5	0	
147.5	22.5	0	
150	22.5	0	
152.5	22.5	0	
155	22.5	0	
157.5	22.5	0	
160	22.5	0	
180	22.5	0	
182.5	22.5	0	
185	22.5	0	
187.5	22.5	0	
40	25	0	
42.5	25	0	
45	25	0	
47.5	25	0	
50	25	0	
52.5	25	0	
55	25	0	
57.5	25	0	
60	25	0	
75	25	0	
77.5	25	0	
80	25	0	
82.5	25	0	
85	25	0	
87.5	25	0	
90	25	0	
92.5	25	0	
95	25	0	
97.5	25	0	
100	25	0	
102.5	25	0	
105	25	0	
107.5	25	0	
110	25	0	
112.5	25	0	
115	25	0	
130	25	0	
132.5	25	0	
135	25	0	
137.5	25	0	
140	25	0	
142.5	25	0	
145	25	0	
147.5	25	0	
150	25	0	
152.5	25	0	
155	25	0	
157.5	25	0	
185	25	0	
187.5	25	0	
37.5	27.5	0	
40	27.5	0	
42.5	27.5	0	
45	27.5	0	
47.5	27.5	0	
50	27.5	0	
52.5	27.5	0	
55	27.5	0	
57.5	27.5	0	
60	27.5	0	
62.5	27.5	0	
65	27.5	0	
67.5	27.5	0	
70	27.5	0	
72.5	27.5	0	
75	27.5	0	
77.5	27.5	0	
80	27.5	0	
82.5	27.5	0	
85	27.5	0	
87.5	27.5	0	
90	27.5	0	
92.5	27.5	0	
95	27.5	0	
97.5	27.5	0	
100	27.5	0	
102.5	27.5	0	
105	27.5	0	
107.5	27.5	0	
110	27.5	0	
112.5	27.5	0	
115	27.5	0	
117.5	27.5	0	
127.5	27.5	0	
130	27.5	0	
132.5	27.5	0	
135	27.5	0	
137.5	27.5	0	
140	27.5	0	
142.5	27.5	0	
145	27.5	0	
147.5	27.5	0	
150	27.5	0	
152.5	27.5	0	
155	27.5	0	
157.5	27.5	0	
160	27.5	0	
180	27.5	0	
182.5	27.5	0	
185	27.5	0	
187.5	27.5	0	
35	30	0	
37.5	30	0	
40	30	0	
42.5	30	0	
45	30	0	
47.5	30	0	
50	30	0	
52.5	30	0	
55	30	0	
57.5	30	0	
60	30	0	
62.5	30	0	
65	30	0	
67.5	30	0	
70	30	0	
72.5	30	0	
75	30	0	
77.5	30	0	
80	30	0	
82.5	30	0	
85	30	0	
87.5	30	0	
90	30	0	
92.5	30	0	
95	30	0	
97.5	30	0	
100	30	0	
102.5	30	0	
105	30	0	
107.5	30	0	
110	30	0	
112.5	30	0	
115	30	0	
117.5	30	0	
125	30	0	
127.5	30	0	
130	30	0	
132.5	30	0	
135	30	0	
137.5	30	0	
140	30	0	
142.5	30	0	
145	30	0	
147.5	30	0	
150	30	0	
152.5	30	0	
155	30	0	
157.5	30	0	
160	30	0	
162.5	30	0	
177.5	30	0	
180	30	0	
182.5	30	0	
185	30	0	
30	32.5	0	
32.5	32.5	0	
35	32.5	0	
37.5	32.5	0	
40	32.5	0	
42.5	32.5	0	
[...]
CELL_DATA	4716
SCALARS Rho0 float
LOOKUP_TABLE default
1
1
1
1
1
1e-10
1e-10
1e-10
1e-10
1e-10
1e-10
1e-10
1e-10
1e-10
1e-10
1e-10
1e-10
1e-10
1e-10
1e-10
1e-10
1e-10
1e-10
1e-10
1e-10
1
1
1
1
1
1
1
1
1
1
1e-10
1e-10
1e-10
1e-10
1e-10
1e-10
1e-10
1e-10
1e-10
1e-10
1e-10
1e-10
1e-10
1e-10
1e-10
1e-10
1e-10
1e-10
1e-10
1e-10
1
1
1
1
1
1
1
1
1
1
1e-10
1e-10
1e-10
1e-10
1e-10
1e-10
1e-10
1e-10
1e-10
1e-10
1e-10
1e-10
1e-10
1e-10
1e-10
1e-10
1e-10
1e-10
1e-10
1e-10
1e-10
1e-10
1e-10
1e-10
1e-10
1e-10
1
1
1
1
1
1
1
1
1
1
1e-10
1e-10
1e-10
1e-10
1e-10
1e-10
1e-10
1e-10
1e-10
1e-10
1e-10
1e-10
1e-10
1e-10
1e-10
1e-10
1e-10
1e-10
1e-10
1e-10
1e-10
1e-10
1e-10
1e-10
1e-10
1e-10
1e-10
1e-10
1e-10
1e-10
1
1
1
1
1
1
1
1
1
1
1e-10
1e-10
1e-10
1e-10
1e-10
1e-10
1e-10
1e-10
1e-10
1e-10
1e-10
1e-10
1e-10
1e-10
1e-10
1e-10
1e-10
1e-10
1e-10
1e-10
1e-10
1e-10
1e-10
1e-10
1e-10
1e-10
1e-10
1e-10
1e-10
1e-10
1
1
1
1
1
1
1
1
1
1
1e-10
1e-10
1e-10
1e-10
1e-10
1e-10
1e-10
1e-10
1e-10
1e-10
1e-10
1e-10
1e-10
1e-10
1e-10
1e-10
1e-10
1e-10
1e-10
1e-10
1e-10
1e-10
1e-10
1e-10
1e-10
1e-10
1e-10
1e-10
1e-10
1e-10
1
1
1
1
1
1
1
1
1
1
1e-10
1e-10
1e-10
1e-10
1e-10
1e-10
1e-10
1e-10
1e-10
1e-10
1e-10
1e-10
1e-10
1e-10
1e-10
1e-10
1e-10
1e-10
1e-10
1e-10
1e-10
1e-10
1e-10
1e-10
1e-10
1e-10
1e-10
1e-10
1e-10
1e-10
1
1
1
1
1
1
1
1
1
1
1e-10
1e-10
1e-10
1e-10
1e-10
1e-10
1e-10
1e-10
1e-10
1e-10
1e-10
1e-10
1e-10
1e-10
1e-10
1e-10
1e-10
1e-10
1e-10
1e-10
1e-10
1e-10
1e-10
1e-10
1e-10
1e-10
1e-10
1e-10
1e-10
1e-10
1
1
1
1
1
1
1
1e-10
1
1
1e-10
1e-10
1e-10
1e-10
1e-10
1e-10
1e-10
1e-10
1e-10
1e-10
1e-10
1e-10
1e-10
1e-10
1e-10
1e-10
1e-10
1e-10
1e-10
1e-10
1e-10
1e-10
1e-10
1e-10
1e-10
1e-10
1e-10
1e-10
1e-10
1e-10
1e-10
1e-10
1e-10
1e-10
1e-10
1e-10
1e-10
1e-10
1e-10
1e-10
1
1
1e-10
1
1
1
1
1e-10
1
1
1
1e-10
1e-10
1e-10
1
1e-10
1e-10
1e-10
1e-10
1e-10
1e-10
1e-10
1e-10
1e-10
1e-10
1e-10
1e-10
1e-10
1e-10
1e-10
1e-10
1e-10
1e-10
1e-10
1e-10
1e-10
1e-10
1e-10
1e-10
1e-10
1e-10
1e-10
1e-10
1e-10
1e-10
1
1e-10
1e-10
1e-10
1
1
1
1e-10
1
1
1
1
1e-10
1
1
1
1e-10
1e-10
1e-10
1
1e-10
1e-10
1e-10
1e-10
1e-10
1e-10
1e-10
1e-10
1e-10
1e-10
1e-10
1e-10
1e-10
1e-10
1e-10
1e-10
1e-10
1e-10
1e-10
1e-10
1e-10
1e-10
1e-10
1e-10
1e-10
1e-10
1e-10
1e-10
1e-10
1e-10
1e-10
1e-10
1e-10
1e-10
1
1e-10
1e-10
1e-10
1
1
1
1e-10
1
1
1
1
1e-10
1
1
1
1e-10
1e-10
1e-10
1
1e-10
1e-10
1e-10
1e-10
1e-10
1e-10
1e-10
1e-10
1e-10
1e-10
1e-10
1e-10
1e-10
1e-10
1e-10
1e-10
1e-10
1e-10
1e-10
1e-10
1e-10
1e-10
1e-10
1e-10
1e-10
1e-10
1e-10
1e-10
1e-10
1e-10
1e-10
1e-10
1e-10
1e-10
1e-10
1e-10
1e-10
1e-10
1
1e-10
1e-10
1e-10
1
1
1
1e-10
1
1
1
1
1e-10
1
1
1
1e-10
1e-10
1e-10
1
1e-10
1e-10
1e-10
1e-10
1e-10
1e-10
1e-10
1e-10
1e-10
1e-10
1e-10
1e-10
1e-10
1e-10
1e-10
1e-10
1e-10
1e-10
1e-10
1e-10
1e-10
1e-10
1e-10
1e-10
1e-10
1e-10
1e-10
1e-10
1e-10
1e-10
1e-10
1e-10
1e-10
1e-10
1e-10
1e-10
1e-10
1e-10
1e-10
1e-10
1e-10
1e-10
1
1e-10
1e-10
1e-10
1
1
1
1e-10
1
1
1
1e-10
1e-10
1e-10
1
1
1
1e-10
1
1
1e-10
1e-10
1e-10
1e-10
1e-10
1e-10
1e-10
1e-10
1e-10
1e-10
0.377144
1e-10
1e-10
0.377144
1e-10
1e-10
1e-10
1e-10
1e-10
1e-10
1e-10
1e-10
1e-10
1e-10
1e-10
1e-10
0.377144
1e-10
1e-10
0.377144
1e-10
1e-10
1e-10
1e-10
1e-10
1e-10
1e-10
1e-10
1e-10
1e-10
1
1
1e-10
1
1
1
1e-10
1e-10
1e-10
1
1
1e-10
1e-10
1e-10
1
1
1
1e-10
1
1
1e-10
1e-10
1e-10
1e-10
1e-10
1e-10
1e-10
1e-10
1e-10
1e-10
0.35809
1e-10
1e-10
0.35809
1e-10
1e-10
1e-10
1e-10
1e-10
1e-10
1e-10
1e-10
1e-10
1e-10
1e-10
1e-10
0.35809
1e-10
1e-10
0.35809
1e-10
1e-10
1e-10
1e-10
1e-10
1e-10
1e-10
1e-10
1e-10
1e-10
1
1
1e-10
1
1
1
1e-10
1e-10
1e-10
1
1
1e-10
1e-10
1e-10
1
1
1
1e-10
1
1
1e-10
1e-10
1e-10
1e-10
1e-10
1e-10
1e-10
1e-10
1e-10
1e-10
1e-10
1e-10
1e-10
1e-10
0.336524
1e-10
1e-10
0.336524
1e-10
1e-10
1e-10
1e-10
1e-10
1e-10
1e-10
1e-10
0.336524
1e-10
1e-10
0.336524
1e-10
1e-10
1e-10
1e-10
1e-10
1e-10
1e-10
1e-10
1e-10
1e-10
1e-10
1e-10
1e-10
1e-10
1
1
1e-10
1
1
1
1e-10
1e-10
1e-10
1
1e-10
1e-10
1e-10
1e-10
1e-10
1
1
1e-10
1
1
1e-10
1e-10
1e-10
1e-10
1e-10
1e-10
1e-10
1e-10
1e-10
1e-10
1e-10
1e-10
0.173486
1e-10
1e-10
0.173486
0.248621
0.248621
1e-10
1e-10
1e-10
1e-10
1e-10
1e-10
1e-10
1e-10
0.248621
0.248621
0.173486
1e-10
1e-10
0.173486
1e-10
1e-10
1e-10
1e-10
1e-10
1e-10
1e-10
1e-10
1e-10
1e-10
1e-10
1e-10
1
1
1e-10
1
1
1e-10
1e-10
1e-10
1e-10
1e-10
1e-10
1e-10
1e-10
1e-10
1e-10
1
1
1e-10
1
1
1e-10
1e-10
1e-10
1e-10
1e-10
1e-10
1e-10
1e-10
1e-10
1e-10
1e-10
1e-10
1e-10
1e-10
1e-10
1e-10
0.339971
0.339971
1e-10
1e-10
1e-10
1e-10
1e-10
1e-10
1e-10
1e-10
0.339971
0.339971
1e-10
1e-10
1e-10
1e-10
1e-10
1e-10
1e-10
1e-10
1e-10
1e-10
1e-10
1e-10
1e-10
1e-10
1e-10
1e-10
1
1
1e-10
1
1
1e-10
1e-10
1e-10
1e-10
1e-10
1e-10
1e-10
1e-10
1e-10
1e-10
1
1
1e-10
1
1
1e-10
1e-10
1e-10
1e-10
1e-10
1e-10
1e-10
1e-10
1e-10
1e-10
1e-10
1e-10
1e-10
1e-10
1e-10
1e-10
1e-10
1e-10
0.35634
0.35634
1e-10
1e-10
1e-10
1e-10
0.35634
0.35634
1e-10
1e-10
1e-10
1e-10
1e-10
1e-10
1e-10
1e-10
1e-10
1e-10
1e-10
1e-10
1e-10
1e-10
1e-10
1e-10
1e-10
1e-10
1
1
1e-10
1
1
1e-10
1e-10
1e-10
1e-10
1e-10
1e-10
1e-10
1e-10
1e-10
1e-10
1
1
1e-10
1
1
1
1e-10
1e-10
1e-10
1
1e-10
1e-10
1e-10
1e-10
1e-10
1e-10
1e-10
1e-10
1e-10
1e-10
1e-10
1e-10
1e-10
0.355824
0.355824
0.347109
0.347109
0.347109
0.347109
0.355825
0.355825
1e-10
1e-10
1e-10
1e-10
1e-10
1e-10
1e-10
1e-10
1e-10
1e-10
1e-10
1e-10
1e-10
1
1e-10
1e-10
1e-10
1
1
1
1e-10
1
1
1e-10
1e-10
1e-10
1e-10
1e-10
1e-10
1e-10
1e-10
1e-10
1e-10
1
1
1e-10
1
1
1
1e-10
1e-10
1e-10
1
1e-10
1e-10
1e-10
1e-10
1e-10
1e-10
1e-10
1e-10
1e-10
1e-10
1e-10
1e-10
1e-10
1e-10
1e-10
0.402261
0.402261
0.402261
0.402261
1e-10
1e-10
1e-10
1e-10
1e-10
1e-10
1e-10
1e-10
1e-10
1e-10
1e-10
1e-10
1e-10
1e-10
1e-10
1
1e-10
1e-10
1e-10
1
1
1
1e-10
1
1
1e-10
1e-10
1e-10
1e-10
1e-10
0.926342
1e-10
1e-10
1e-10
0.926342
1
1
1e-10
1
1
0.86256
1e-10
1e-10
1e-10
0.86256
1
1e-10
1e-10
1e-10
1
1e-10
1e-10
1e-10
1e-10
1e-10
1e-10
1e-10
1e-10
0.454205
0.454205
1e-10
1e-10
1e-10
1e-10
0.454205
0.454205
1e-10
1e-10
1e-10
1e-10
1e-10
1e-10
1e-10
1e-10
1
1e-10
1e-10
1e-10
1
0.86256
1e-10
1e-10
1e-10
0.86256
1
1
1e-10
1
1
0.926342
1e-10
1e-10
1e-10
0.926342
1
1e-10
1e-10
1e-10
1
0.950566
1
1e-10
1
0.950566
1e-10
1e-10
1e-10
1e-10
1e-10
1
1e-10
1e-10
1e-10
1
0.953604
0.953604
1e-10
1e-10
1e-10
1e-10
1e-10
1e-10
1e-10
1e-10
0.375086
0.375086
0.375086
0.375086
1e-10
1e-10
1e-10
1e-10
1e-10
1e-10
1e-10
1e-10
0.953604
0.953604
1
1e-10
1e-10
1e-10
1
1e-10
1e-10
1e-10
1e-10
1e-10
0.950568
1
1e-10
1
0.950567
1
1e-10
1e-10
1e-10
1
1
1e-10
1e-10
1e-10
1
0.789462
1
1e-10
1
0.789462
1e-10
1e-10
1e-10
1e-10
1e-10
1e-10
1e-10
1e-10
1e-10
1e-10
1
1
1e-10
1e-10
1e-10
1e-10
1e-10
1e-10
1e-10
1e-10
0.380053
0.380053
0.380053
0.380053
1e-10
1e-10
1e-10
1e-10
1e-10
1e-10
1e-10
1e-10
1
1
1e-10
1e-10
1e-10
1e-10
1e-10
1e-10
1e-10
1e-10
1e-10
1e-10
0.789466
1
1e-10
1
0.789466
1
1e-10
1e-10
1e-10
1
1
1
1e-10
1
1
0.956332
0.335578
1e-10
0.335578
0.956332
1e-10
1e-10
1e-10
1e-10
1e-10
0.628787
1e-10
1e-10
1e-10
0.628787
1e-10
1e-10
1
1
1e-10
1e-10
1e-10
1e-10
0.282872
0.282872
0.282872
0.282872
1e-10
1e-10
1e-10
1e-10
1
1
1e-10
1e-10
0.628787
1e-10
1e-10
1e-10
0.628787
1e-10
1e-10
1e-10
1e-10
1e-10
0.956339
0.335561
1e-10
0.335562
0.956339
1
1
1e-10
1
1
1
1
1e-10
1
1
1
1e-10
1e-10
1e-10
1
1e-10
1e-10
1e-10
1e-10
1e-10
1e-10
1e-10
1e-10
1e-10
1e-10
1e-10
1e-10
1
1
1e-10
1e-10
0.291487
0.291487
1e-10
1e-10
1e-10
1e-10
0.291487
0.291487
1e-10
1e-10
1
1
1e-10
1e-10
1e-10
1e-10
1e-10
1e-10
1e-10
1e-10
1e-10
1e-10
1e-10
1e-10
1
1e-10
1e-10
1e-10
1
1
1
1e-10
1
1
1
1
1e-10
1
1
1e-10
1e-10
1e-10
1e-10
1e-10
1e-10
1e-10
1e-10
1e-10
1e-10
1e-10
1e-10
1e-10
1e-10
1e-10
1e-10
1e-10
1e-10
1e-10
1e-10
1e-10
1
1
1e-10
1e-10
1e-10
1e-10
1e-10
1e-10
1e-10
1e-10
1
1
1e-10
1e-10
1e-10
1e-10
1e-10
1e-10
1e-10
1e-10
1e-10
1e-10
1e-10
1e-10
1e-10
1e-10
1e-10
1e-10
1e-10
1e-10
1e-10
1e-10
1e-10
1
1
1e-10
1
1
1
1
1e-10
1
1
1e-10
1e-10
1e-10
1e-10
1e-10
1e-10
1e-10
1e-10
1e-10
1e-10
1e-10
1e-10
1e-10
1e-10
1e-10
1e-10
1e-10
1e-10
1e-10
1e-10
1e-10
1
1
1e-10
1e-10
1e-10
1e-10
1e-10
1e-10
1e-10
1e-10
1
1
1e-10
1e-10
1e-10
1e-10
1e-10
1e-10
1e-10
1e-10
1e-10
1e-10
1e-10
1e-10
1e-10
1e-10
1e-10
1e-10
1e-10
1e-10
1e-10
1e-10
1e-10
1
1
1e-10
1
1
1
1
1e-10
1
1
1e-10
1e-10
1e-10
1e-10
1e-10
1e-10
1e-10
1e-10
1e-10
1e-10
1e-10
1e-10
1e-10
1e-10
1e-10
1e-10
1e-10
1e-10
1e-10
1e-10
1e-10
1e-10
1e-10
1
1
1e-10
1e-10
1e-10
1e-10
1
1
1e-10
1e-10
1e-10
1e-10
1e-10
1e-10
1e-10
1e-10
1e-10
1e-10
1e-10
1e-10
1e-10
1e-10
1e-10
1e-10
1e-10
1e-10
1e-10
1e-10
1e-10
1e-10
1e-10
1
1
1e-10
1
1
1
1
1e-10
1
1
1e-10
1e-10
1e-10
1e-10
1e-10
1e-10
1e-10
1e-10
1e-10
1e-10
0.264421
1e-10
1e-10
1e-10
0.264421
1e-10
1e-10
1e-10
1e-10
1e-10
0.265474
0.265474
1e-10
1e-10
1
1
0.10607
0.106069
0.10607
0.106071
1
1
1e-10
1e-10
0.265474
0.265474
1e-10
1e-10
1e-10
1e-10
1e-10
0.264421
1e-10
1e-10
1e-10
0.264421
1e-10
1e-10
1e-10
1e-10
1e-10
1e-10
1e-10
1e-10
1e-10
1e-10
1
1
1e-10
1
1
1
1
1e-10
1
1
1e-10
1e-10
1e-10
1e-10
1e-10
1e-10
1e-10
1e-10
1e-10
1e-10
1e-10
1e-10
1e-10
1e-10
1e-10
1e-10
1e-10
1e-10
1e-10
1e-10
1e-10
5.49334e-09
5.49307e-09
1
1
1e-10
1e-10
1e-10
1e-10
1
1
5.49348e-09
5.49412e-09
1e-10
1e-10
1e-10
1e-10
1e-10
1e-10
1e-10
1e-10
1e-10
1e-10
1e-10
1e-10
1e-10
1e-10
1e-10
1e-10
1e-10
1e-10
1e-10
1e-10
1e-10
1
1
1e-10
1
1
1
1
1e-10
1
1
1e-10
1e-10
1e-10
1e-10
1e-10
1e-10
1e-10
1e-10
1e-10
1e-10
1e-10
1e-10
1e-10
1e-10
1e-10
1e-10
1e-10
1e-10
1e-10
1e-10
1e-10
1e-10
1e-10
0.88907
0.88907
0.606196
0.606196
0.606196
0.606196
0.889071
0.88907
1e-10
1e-10
1e-10
1e-10
1e-10
1e-10
1e-10
1e-10
1e-10
1e-10
1e-10
1e-10
1e-10
1e-10
1e-10
1e-10
1e-10
1e-10
1e-10
1e-10
1e-10
1e-10
1e-10
1
1
1e-10
1
1
1
1
1e-10
1
1
1e-10
1e-10
1e-10
1e-10
1e-10
1e-10
1e-10
1e-10
1e-10
1e-10
1e-10
1e-10
1e-10
1e-10
1e-10
1e-10
1e-10
1e-10
1e-10
1e-10
1e-10
1e-10
1
1
0.635522
0.635522
0.635523
0.635523
1
1
1e-10
1e-10
1e-10
1e-10
1e-10
1e-10
1e-10
1e-10
1e-10
1e-10
1e-10
1e-10
1e-10
1e-10
1e-10
1e-10
1e-10
1e-10
1e-10
1e-10
1e-10
1e-10
1
1
1e-10
1
1
1
0.963487
1e-10
0.963487
1
1e-10
1e-10
1e-10
1e-10
1e-10
1e-10
1e-10
1e-10
1e-10
1e-10
1e-10
1e-10
1e-10
1e-10
1e-10
1e-10
1e-10
1e-10
1e-10
1e-10
1e-10
1e-10
1e-10
1e-10
1
1
1
1
1e-10
1e-10
1e-10
1e-10
1e-10
1e-10
1e-10
1e-10
1e-10
1e-10
1e-10
1e-10
1e-10
1e-10
1e-10
1e-10
1e-10
1e-10
1e-10
1e-10
1e-10
1e-10
1e-10
1e-10
1
0.963487
1e-10
0.963487
1
1
1
1e-10
1
1
1e-10
1e-10
1e-10
1e-10
1e-10
1e-10
1e-10
1e-10
1e-10
1e-10
1e-10
1e-10
1e-10
1e-10
1e-10
1e-10
1e-10
1e-10
1e-10
1e-10
1e-10
1e-10
1e-10
1e-10
0.895865
0.895865
0.895864
0.895864
1e-10
1e-10
1e-10
1e-10
1e-10
1e-10
1e-10
1e-10
1e-10
1e-10
1e-10
1e-10
1e-10
1e-10
1e-10
1e-10
1e-10
1e-10
1e-10
1e-10
1e-10
1e-10
1e-10
1e-10
1
1
1e-10
1
1
1
1e-10
1e-10
1e-10
1
1e-10
1e-10
1e-10
1e-10
1e-10
1e-10
1e-10
1e-10
1e-10
1e-10
1e-10
1e-10
1e-10
1e-10
1e-10
1e-10
1e-10
1e-10
1e-10
1e-10
0.510056
0.510056
0.817816
0.817816
1e-10
1e-10
1e-10
1e-10
0.817815
0.817815
0.510056
0.510055
1e-10
1e-10
1e-10
1e-10
1e-10
1e-10
1e-10
1e-10
1e-10
1e-10
1e-10
1e-10
1e-10
1e-10
1e-10
1e-10
1e-10
1e-10
1e-10
1e-10
1
1e-10
1e-10
1e-10
1
1
1e-10
1e-10
1e-10
1
1e-10
1e-10
1e-10
1e-10
1e-10
1e-10
1e-10
1e-10
1e-10
1e-10
1e-10
1e-10
1e-10
1e-10
1e-10
1e-10
0.79375
0.793751
0.523666
0.523666
1e-10
1e-10
1e-10
1e-10
1e-10
1e-10
1e-10
1e-10
0.523666
0.523666
0.79375
0.79375
1e-10
1e-10
1e-10
1e-10
1e-10
1e-10
1e-10
1e-10
1e-10
1e-10
1e-10
1e-10
1e-10
1e-10
1e-10
1e-10
1
1e-10
1e-10
1e-10
1
1
1e-10
1e-10
1e-10
1
1e-10
1e-10
1e-10
1e-10
1e-10
1e-10
1e-10
1e-10
1e-10
1e-10
1e-10
1e-10
0.456615
0.456615
0.804613
0.804613
1e-10
1e-10
1e-10
1e-10
1e-10
1e-10
1e-10
1e-10
1e-10
1e-10
1e-10
1e-10
1e-10
1e-10
1e-10
1e-10
0.804613
0.804613
0.456615
0.456615
1e-10
1e-10
1e-10
1e-10
1e-10
1e-10
1e-10
1e-10
1e-10
1e-10
1e-10
1e-10
1
1e-10
1e-10
1e-10
1
1
1e-10
1e-10
1e-10
1
1e-10
1e-10
1e-10
1e-10
1e-10
1e-10
1e-10
1e-10
1e-10
1e-10
0.691637
0.691637
0.585487
0.585487
1e-10
1e-10
1e-10
1e-10
1e-10
1e-10
1e-10
1e-10
1e-10
1e-10
1e-10
1e-10
1e-10
1e-10
1e-10
1e-10
1e-10
1e-10
1e-10
1e-10
0.585487
0.585487
0.691636
0.691636
1e-10
1e-10
1e-10
1e-10
1e-10
1e-10
1e-10
1e-10
1e-10
1e-10
1
1e-10
1e-10
1e-10
1
1
1e-10
1e-10
1e-10
1
1e-10
1e-10
1e-10
1e-10
1e-10
0.79253
1e-10
1e-10
1e-10
0.79253
0.250261
0.250261
1e-10
1e-10
1e-10
1e-10
1e-10
1e-10
1e-10
1e-10
1e-10
1e-10
1e-10
1e-10
1e-10
1e-10
1e-10
1e-10
1e-10
1e-10
1e-10
1e-10
1e-10
1e-10
1e-10
1e-10
0.25026
0.25026
0.792529
1e-10
1e-10
1e-10
0.792529
1e-10
1e-10
1e-10
1e-10
1e-10
1
1e-10
1e-10
1e-10
1
1
1e-10
1e-10
1e-10
1
0.796494
1e-10
1e-10
1e-10
0.796494
1e-10
1e-10
1e-10
1e-10
1e-10
1e-10
1e-10
1e-10
1e-10
1e-10
1e-10
1e-10
1e-10
1e-10
1e-10
1e-10
1e-10
1e-10
1e-10
1e-10
1e-10
1e-10
1e-10
1e-10
1e-10
1e-10
1e-10
1e-10
1e-10
1e-10
1e-10
1e-10
1e-10
1e-10
1e-10
1e-10
1e-10
1e-10
0.796494
1e-10
1e-10
1e-10
0.796494
1
1e-10
1e-10
1e-10
1
1
1e-10
1e-10
1e-10
1
0.00686533
1e-10
1e-10
1e-10
0.00686522
1e-10
1e-10
1e-10
1e-10
1e-10
1e-10
1e-10
1e-10
1e-10
1e-10
1e-10
1e-10
1e-10
1e-10
1e-10
1e-10
1e-10
1e-10
1e-10
1e-10
1e-10
1e-10
1e-10
1e-10
1e-10
1e-10
1e-10
1e-10
1e-10
1e-10
1e-10
1e-10
1e-10
1e-10
1e-10
1e-10
1e-10
1e-10
0.00686501
1e-10
1e-10
1e-10
0.00686485
1
1e-10
1e-10
1e-10
1
1
1e-10
1e-10
1e-10
1
0.895291
1e-10
1e-10
1e-10
0.895291
1e-10
1e-10
1e-10
1e-10
1e-10
1e-10
1e-10
1e-10
1e-10
1e-10
1e-10
1e-10
1e-10
1e-10
1e-10
1e-10
1e-10
1e-10
1e-10
1e-10
1e-10
1e-10
1e-10
1e-10
1e-10
1e-10
1e-10
1e-10
1e-10
1e-10
1e-10
1e-10
1e-10
1e-10
1e-10
1e-10
1e-10
1e-10
0.895291
1e-10
1e-10
1e-10
0.895291
1
1e-10
1e-10
1e-10
1
1
1e-10
1e-10
1e-10
1
0.947501
1e-10
1e-10
1e-10
0.947501
1e-10
1e-10
1e-10
1e-10
1e-10
1e-10
1e-10
1e-10
1e-10
1e-10
1e-10
1e-10
1e-10
1e-10
1e-10
1e-10
1e-10
1e-10
1e-10
1e-10
1e-10
1e-10
1e-10
1e-10
1e-10
1e-10
1e-10
1e-10
1e-10
1e-10
1e-10
1e-10
1e-10
1e-10
1e-10
1e-10
1e-10
1e-10
1e-10
1e-10
1e-10
1e-10
0.947501
1e-10
1e-10
1e-10
0.947501
1
1e-10
1e-10
1e-10
1
1
1e-10
1e-10
1e-10
1
0.76348
1e-10
1e-10
1e-10
0.76348
0.675559
1e-10
1e-10
1e-10
0.675559
1e-10
1e-10
1e-10
1e-10
1e-10
1e-10
1e-10
1e-10
1e-10
1e-10
1e-10
1e-10
1e-10
1e-10
1e-10
1e-10
1e-10
1e-10
1e-10
1e-10
1e-10
1e-10
1e-10
1e-10
1e-10
1e-10
1e-10
1e-10
0.675558
1e-10
1e-10
1e-10
0.675558
0.76348
1e-10
1e-10
1e-10
0.76348
1
1e-10
1e-10
1e-10
1
1
1e-10
1e-10
1e-10
1
1e-10
1e-10
1e-10
1e-10
1e-10
1
1e-10
1e-10
1e-10
1
1e-10
1e-10
1e-10
1e-10
1e-10
1e-10
1e-10
1e-10
1e-10
1e-10
1e-10
1e-10
1e-10
1e-10
1e-10
1e-10
1e-10
1e-10
1e-10
1e-10
1e-10
1e-10
1e-10
1e-10
1e-10
1e-10
1
1e-10
1e-10
1e-10
1
1e-10
1e-10
1e-10
1e-10
1e-10
1
1e-10
1e-10
1e-10
1
1
1e-10
1e-10
1e-10
1
1e-10
1e-10
1e-10
1e-10
1e-10
1e-10
1e-10
1e-10
1e-10
1e-10
1
1e-10
1e-10
1e-10
1
1e-10
1e-10
1e-10
1e-10
1e-10
1e-10
1e-10
1e-10
1e-10
1e-10
1e-10
1e-10
1e-10
1e-10
1e-10
1e-10
1e-10
1e-10
1e-10
1e-10
1e-10
1e-10
1e-10
1e-10
1
1e-10
1e-10
1e-10
1
1e-10
1e-10
1e-10
1e-10
1e-10
1e-10
1e-10
1e-10
1e-10
1e-10
1
1e-10
1e-10
1e-10
1
1
1e-10
1e-10
1e-10
1
1e-10
1e-10
1e-10
1e-10
1e-10
1e-10
1e-10
0.652198
1e-10
1e-10
1e-10
0.652199
0.630931
1e-10
1e-10
1e-10
0.630931
1e-10
1e-10
1e-10
1e-10
1e-10
1e-10
1e-10
1e-10
0.630931
1e-10
1e-10
1e-10
0.630931
0.652198
1e-10
1e-10
1e-10
0.652198
1e-10
1e-10
1e-10
1e-10
1e-10
1e-10
1e-10
1
1e-10
1e-10
1e-10
1
1
1e-10
1e-10
1e-10
1
1e-10
1e-10
1e-10
1e-10
1e-10
1e-10
1e-10
1e-10
1e-10
1
1e-10
1e-10
1e-10
1
1e-10
1e-10
1e-10
1e-10
1e-10
1e-10
1e-10
1e-10
1
1e-10
1e-10
1e-10
1
1e-10
1e-10
1e-10
1e-10
1e-10
1e-10
1e-10
1e-10
1e-10
1
1e-10
1e-10
1e-10
1
1
1e-10
1e-10
1e-10
1
1e-10
1e-10
1e-10
1e-10
1e-10
1e-10
1e-10
1e-10
1e-10
1e-10
1
1e-10
1e-10
1e-10
1
1e-10
1e-10
1e-10
1e-10
1
1e-10
1e-10
1e-10
1
1e-10
1e-10
1e-10
1e-10
1e-10
1e-10
1e-10
1e-10
1e-10
1e-10
1
1e-10
1e-10
1e-10
1
1
1e-10
1e-10
1e-10
1
1e-10
1e-10
1e-10
1e-10
1e-10
1e-10
1e-10
1e-10
1e-10
0.771174
1e-10
1e-10
1e-10
0.771173
0.833842
0.833843
1e-10
1e-10
1e-10
1e-10
0.83384
0.83384
0.771176
1e-10
1e-10
1e-10
0.771176
1e-10
1e-10
1e-10
1e-10
1e-10
1e-10
1e-10
1e-10
1e-10
1
1e-10
1e-10
1e-10
1
1
1e-10
1e-10
1e-10
1
1e-10
1e-10
1e-10
1e-10
1e-10
1e-10
1e-10
1e-10
1e-10
1e-10
1e-10
1e-10
1e-10
1
1e-10
1e-10
1
0.266754
0.26676
1e-10
1e-10
1e-10
1e-10
0.266744
0.266744
1
1e-10
1e-10
1
1e-10
1e-10
1e-10
1e-10
1e-10
1e-10
1e-10
1e-10
1e-10
1e-10
1e-10
1e-10
1e-10
1
1e-10
1e-10
1e-10
1
1
1e-10
1e-10
1e-10
1
1e-10
1e-10
1e-10
1e-10
1e-10
1e-10
1e-10
1e-10
1e-10
1e-10
1e-10
1e-10
1e-10
1e-10
1e-10
1
1
1e-10
1e-10
1e-10
1e-10
1e-10
1e-10
1e-10
1e-10
1
1
1e-10
1e-10
1e-10
1e-10
1e-10
1e-10
1e-10
1e-10
1e-10
1e-10
1e-10
1e-10
1e-10
1e-10
1e-10
1
1e-10
1e-10
1e-10
1
1
1e-10
1e-10
1e-10
1
1e-10
1e-10
1e-10
1e-10
1e-10
1e-10
1e-10
1e-10
1e-10
1e-10
1e-10
1e-10
1e-10
1e-10
1e-10
0.494127
0.494122
0.777454
0.777456
1e-10
1e-10
1e-10
1e-10
0.777451
0.777451
0.494135
0.494134
1e-10
1e-10
1e-10
1e-10
1e-10
1e-10
1e-10
1e-10
1e-10
1e-10
1e-10
1e-10
1e-10
1e-10
1e-10
1
1e-10
1e-10
1e-10
1
1
1e-10
1e-10
1e-10
1
1e-10
1e-10
1e-10
1e-10
1e-10
1e-10
1e-10
1e-10
1e-10
1e-10
1e-10
1e-10
1e-10
1e-10
1e-10
0.862656
0.862654
0.671803
0.671803
0.671803
0.671803
0.862658
0.862657
1e-10
1e-10
1e-10
1e-10
1e-10
1e-10
1e-10
1e-10
1e-10
1e-10
1e-10
1e-10
1e-10
1e-10
1e-10
1
1e-10
1e-10
1e-10
1
1
1e-10
1e-10
1e-10
1
1e-10
1e-10
1e-10
1e-10
1e-10
1e-10
1e-10
1e-10
1e-10
1e-10
1e-10
1e-10
1e-10
1e-10
1e-10
1e-10
1e-10
0.208772
0.208769
0.948102
0.948102
0.948101
0.948101
0.208783
0.208786
1e-10
1e-10
1e-10
1e-10
1e-10
1e-10
1e-10
1e-10
1e-10
1e-10
1e-10
1e-10
1e-10
1e-10
1e-10
1e-10
1e-10
1
1e-10
1e-10
1e-10
1
1
1e-10
1e-10
1e-10
1
1e-10
1e-10
1e-10
1e-10
1e-10
1e-10
1e-10
1e-10
1e-10
1e-10
1e-10
0.472441
0.472441
0.719216
0.719216
0.682652
0.682652
0.629929
0.629928
0.629929
0.629928
0.682651
0.682651
0.719214
0.719214
0.472443
0.472444
1e-10
1e-10
1e-10
1e-10
1e-10
1e-10
1e-10
1e-10
1e-10
1e-10
1e-10
1
1e-10
1e-10
1e-10
1
1
1e-10
1e-10
1e-10
1
1e-10
1e-10
1e-10
1e-10
1e-10
1e-10
1e-10
1e-10
1e-10
1e-10
1e-10
0.791262
0.791262
0.706071
0.706071
1e-10
1e-10
0.468244
0.468243
1e-10
1e-10
1e-10
1e-10
0.468245
0.468245
1e-10
1e-10
0.70607
0.70607
0.791262
0.791262
1e-10
1e-10
1e-10
1e-10
1e-10
1e-10
1e-10
1e-10
1e-10
1e-10
1e-10
1
1e-10
1e-10
1e-10
1
1
1e-10
1e-10
1e-10
1
1e-10
1e-10
1e-10
1e-10
1e-10
0.587611
0.587611
1e-10
1e-10
0.863016
0.863016
1e-10
1e-10
1e-10
1e-10
0.544196
0.544195
1e-10
1e-10
1e-10
1e-10
1e-10
1e-10
1e-10
1e-10
0.544195
0.544195
1e-10
1e-10
1e-10
1e-10
0.863016
0.863016
1e-10
1e-10
0.58761
0.58761
1e-10
1e-10
1e-10
1e-10
1e-10
1
1e-10
1e-10
1e-10
1
1
1e-10
1e-10
1e-10
1
1e-10
1e-10
1e-10
1e-10
1e-10
1e-10
1e-10
0.749937
0.749937
1e-10
1e-10
1e-10
1e-10
1e-10
1e-10
1e-10
1e-10
0.529481
0.529481
1e-10
1e-10
1e-10
1e-10
0.529481
0.529481
1e-10
1e-10
1e-10
1e-10
1e-10
1e-10
1e-10
1e-10
0.749937
0.749938
1e-10
1e-10
1e-10
1e-10
1e-10
1e-10
1e-10
1
1e-10
1e-10
1e-10
1
1
1e-10
1e-10
1e-10
1
1e-10
1e-10
1e-10
1e-10
1e-10
0.73253
0.73253
1e-10
1e-10
1e-10
1e-10
1e-10
1e-10
1e-10
1e-10
1e-10
1e-10
0.483404
0.483404
0.483404
0.483404
1e-10
1e-10
1e-10
1e-10
1e-10
1e-10
1e-10
1e-10
1e-10
1e-10
0.73253
0.73253
1e-10
1e-10
1e-10
1e-10
1e-10
1
1e-10
1e-10
1e-10
1
1
1e-10
1e-10
1e-10
1
0.804585
1e-10
1e-10
1e-10
0.804585
1e-10
1e-10
1e-10
1e-10
1e-10
1e-10
1e-10
1e-10
1e-10
1e-10
1e-10
0.48104
0.481039
0.48104
0.481039
1e-10
1e-10
1e-10
1e-10
1e-10
1e-10
1e-10
1e-10
1e-10
1e-10
1e-10
0.804586
1e-10
1e-10
1e-10
0.804586
1
1e-10
1e-10
1e-10
1
1
1e-10
1e-10
1e-10
1
2.67706e-08
1e-10
1e-10
1e-10
2.67654e-08
1e-10
1e-10
1e-10
1e-10
1e-10
1e-10
1e-10
1e-10
1e-10
0.521195
0.521194
1e-10
1e-10
1e-10
1e-10
0.521195
0.521194
1e-10
1e-10
1e-10
1e-10
1e-10
1e-10
1e-10
1e-10
1e-10
2.67564e-08
1e-10
1e-10
1e-10
2.67431e-08
1
1e-10
1e-10
1e-10
1
1
1e-10
1e-10
1e-10
1
0.903165
1e-10
1e-10
1e-10
0.903165
1e-10
1e-10
1e-10
1e-10
1e-10
1e-10
1e-10
1e-10
1e-10
1e-10
1e-10
1e-10
1e-10
0.506256
0.506256
1e-10
1e-10
1e-10
1e-10
0.506256
0.506255
1e-10
1e-10
1e-10
1e-10
1e-10
1e-10
1e-10
1e-10
1e-10
1e-10
1e-10
1e-10
1e-10
0.903165
1e-10
1e-10
1e-10
0.903165
1
1e-10
1e-10
1e-10
1
0.800521
1e-10
1e-10
1e-10
0.800521
1