# vtk DataFile Version 4.1
vtk output
ASCII
DATASET UNSTRUCTURED_GRID

POINTS	55	float
0	0	0.0	
0	0.5	0.0	
0	1	0.0	
0	1.5	0.0	
0	2	0.0	
5	0	0.0	
5	0.5	0.0	
5	1	0.0	
5	1.5	0.0	
5	2	0.0	
10	0	0.0	
10	0.5	0.0	
10	1	0.0	
10	1.5	0.0	
10	2	0.0	
15	0	0.0	
15	0.5	0.0	
15	1	0.0	
15	1.5	0.0	
15	2	0.0	
20	0	0.0	
20	0.5	0.0	
20	1	0.0	
20	1.5	0.0	
20	2	0.0	
25	0	0.0	
25	0.5	0.0	
25	1	0.0	
25	1.5	0.0	
25	2	0.0	
30	0	0.0	
30	0.5	0.0	
30	1	0.0	
30	1.5	0.0	
30	2	0.0	
35	0	0.0	
35	0.5	0.0	
35	1	0.0	
35	1.5	0.0	
35	2	0.0	
40	0	0.0	
40	0.5	0.0	
40	1	0.0	
40	1.5	0.0	
40	2	0.0	
45	0	0.0	
45	0.5	0.0	
45	1	0.0	
45	1.5	0.0	
45	2	0.0	
50	0	0.0	
50	0.5	0.0	
50	1	0.0	
50	1.5	0.0	
50	2	0.0	

CELLS 40	200
4	0	5	6	1	
4	1	6	7	2	
4	2	7	8	3	
4	3	8	9	4	
4	5	10	11	6	
4	6	11	12	7	
4	7	12	13	8	
4	8	13	14	9	
4	10	15	16	11	
4	11	16	17	12	
4	12	17	18	13	
4	13	18	19	14	
4	15	20	21	16	
4	16	21	22	17	
4	17	22	23	18	
4	18	23	24	19	
4	20	25	26	21	
4	21	26	27	22	
4	22	27	28	23	
4	23	28	29	24	
4	25	30	31	26	
4	26	31	32	27	
4	27	32	33	28	
4	28	33	34	29	
4	30	35	36	31	
4	31	36	37	32	
4	32	37	38	33	
4	33	38	39	34	
4	35	40	41	36	
4	36	41	42	37	
4	37	42	43	38	
4	38	43	44	39	
4	40	45	46	41	
4	41	46	47	42	
4	42	47	48	43	
4	43	48	49	44	
4	45	50	51	46	
4	46	51	52	47	
4	47	52	53	48	
4	48	53	54	49	

CELL_TYPES	40
9
9
9
9
9
9
9
9
9
9
9
9
9
9
9
9
9
9
9
9
9
9
9
9
9
9
9
9
9
9
9
9
9
9
9
9
9
9
9
9

POINT_DATA	55
SCALARS u0 float
LOOKUP_TABLE default
300
300
300
300
300
294.426
294.426
294.426
294.426
294.426
288.989
288.989
288.989
288.989
288.989
283.823
283.823
283.823
283.823
283.823
279.055
279.055
279.055
279.055
279.055
274.803
274.803
274.803
274.803
274.803
271.172
271.172
271.172
271.172
271.172
268.25
268.25
268.25
268.25
268.25
266.11
266.11
266.11
266.11
266.11
264.805
264.805
264.805
264.805
264.805
264.366
264.366
264.366
264.366
264.366
