# vtk DataFile Version 4.1
vtk output
ASCII
DATASET UNSTRUCTURED_GRID

POINTS	56171	float
0	0	0	
2.5	0	0	
5	0	0	
7.5	0	0	
10	0	0	
12.5	0	0	
15	0	0	
17.5	0	0	
20	0	0	
22.5	0	0	
25	0	0	
0	2.5	0	
2.5	2.5	0	
5	2.5	0	
7.5	2.5	0	
10	2.5	0	
12.5	2.5	0	
15	2.5	0	
17.5	2.5	0	
20	2.5	0	
22.5	2.5	0	
25	2.5	0	
0	5	0	
2.5	5	0	
5	5	0	
7.5	5	0	
10	5	0	
12.5	5	0	
15	5	0	
17.5	5	0	
20	5	0	
22.5	5	0	
25	5	0	
0	7.5	0	
2.5	7.5	0	
5	7.5	0	
7.5	7.5	0	
10	7.5	0	
12.5	7.5	0	
15	7.5	0	
17.5	7.5	0	
20	7.5	0	
22.5	7.5	0	
25	7.5	0	
0	10	0	
2.5	10	0	
5	10	0	
7.5	10	0	
10	10	0	
12.5	10	0	
15	10	0	
17.5	10	0	
20	10	0	
22.5	10	0	
25	10	0	
0	12.5	0	
2.5	12.5	0	
5	12.5	0	
7.5	12.5	0	
10	12.5	0	
12.5	12.5	0	
15	12.5	0	
17.5	12.5	0	
20	12.5	0	
22.5	12.5	0	
25	12.5	0	
0	15	0	
2.5	15	0	
5	15	0	
7.5	15	0	
10	15	0	
12.5	15	0	
15	15	0	
17.5	15	0	
20	15	0	
22.5	15	0	
25	15	0	
0	17.5	0	
2.5	17.5	0	
5	17.5	0	
7.5	17.5	0	
10	17.5	0	
12.5	17.5	0	
15	17.5	0	
17.5	17.5	0	
20	17.5	0	
22.5	17.5	0	
25	17.5	0	
0	20	0	
2.5	20	0	
5	20	0	
7.5	20	0	
10	20	0	
12.5	20	0	
15	20	0	
17.5	20	0	
20	20	0	
22.5	20	0	
25	20	0	
0	22.5	0	
2.5	22.5	0	
5	22.5	0	
7.5	22.5	0	
10	22.5	0	
12.5	22.5	0	
15	22.5	0	
17.5	22.5	0	
20	22.5	0	
22.5	22.5	0	
25	22.5	0	
0	25	0	
2.5	25	0	
5	25	0	
7.5	25	0	
10	25	0	
12.5	25	0	
15	25	0	
17.5	25	0	
20	25	0	
22.5	25	0	
25	25	0	
0	27.5	0	
2.5	27.5	0	
5	27.5	0	
7.5	27.5	0	
10	27.5	0	
12.5	27.5	0	
15	27.5	0	
17.5	27.5	0	
20	27.5	0	
22.5	27.5	0	
25	27.5	0	
0	30	0	
2.5	30	0	
5	30	0	
7.5	30	0	
10	30	0	
12.5	30	0	
15	30	0	
17.5	30	0	
20	30	0	
22.5	30	0	
25	30	0	
0	32.5	0	
2.5	32.5	0	
5	32.5	0	
7.5	32.5	0	
10	32.5	0	
12.5	32.5	0	
15	32.5	0	
17.5	32.5	0	
20	32.5	0	
22.5	32.5	0	
25	32.5	0	
0	35	0	
2.5	35	0	
5	35	0	
7.5	35	0	
10	35	0	
12.5	35	0	
15	35	0	
17.5	35	0	
20	35	0	
22.5	35	0	
25	35	0	
0	37.5	0	
2.5	37.5	0	
5	37.5	0	
7.5	37.5	0	
10	37.5	0	
12.5	37.5	0	
15	37.5	0	
17.5	37.5	0	
20	37.5	0	
22.5	37.5	0	
25	37.5	0	
0	40	0	
2.5	40	0	
5	40	0	
7.5	40	0	
10	40	0	
12.5	40	0	
15	40	0	
17.5	40	0	
20	40	0	
22.5	40	0	
25	40	0	
0	42.5	0	
2.5	42.5	0	
5	42.5	0	
7.5	42.5	0	
10	42.5	0	
12.5	42.5	0	
15	42.5	0	
17.5	42.5	0	
20	42.5	0	
22.5	42.5	0	
25	42.5	0	
0	45	0	
2.5	45	0	
5	45	0	
7.5	45	0	
10	45	0	
12.5	45	0	
15	45	0	
17.5	45	0	
20	45	0	
22.5	45	0	
25	45	0	
0	47.5	0	
2.5	47.5	0	
5	47.5	0	
7.5	47.5	0	
10	47.5	0	
12.5	47.5	0	
15	47.5	0	
17.5	47.5	0	
20	47.5	0	
22.5	47.5	0	
25	47.5	0	
0	50	0	
2.5	50	0	
5	50	0	
7.5	50	0	
10	50	0	
12.5	50	0	
15	50	0	
17.5	50	0	
20	50	0	
22.5	50	0	
25	50	0	
0	52.5	0	
2.5	52.5	0	
5	52.5	0	
7.5	52.5	0	
10	52.5	0	
12.5	52.5	0	
15	52.5	0	
17.5	52.5	0	
20	52.5	0	
22.5	52.5	0	
25	52.5	0	
0	55	0	
2.5	55	0	
5	55	0	
7.5	55	0	
10	55	0	
12.5	55	0	
15	55	0	
17.5	55	0	
20	55	0	
22.5	55	0	
25	55	0	
0	57.5	0	
2.5	57.5	0	
5	57.5	0	
7.5	57.5	0	
10	57.5	0	
12.5	57.5	0	
15	57.5	0	
17.5	57.5	0	
20	57.5	0	
22.5	57.5	0	
25	57.5	0	
0	60	0	
2.5	60	0	
5	60	0	
7.5	60	0	
10	60	0	
12.5	60	0	
15	60	0	
17.5	60	0	
20	60	0	
22.5	60	0	
25	60	0	
0	62.5	0	
2.5	62.5	0	
5	62.5	0	
7.5	62.5	0	
10	62.5	0	
12.5	62.5	0	
15	62.5	0	
17.5	62.5	0	
20	62.5	0	
22.5	62.5	0	
25	62.5	0	
0	0	2.5	
2.5	0	2.5	
5	0	2.5	
7.5	0	2.5	
10	0	2.5	
12.5	0	2.5	
15	0	2.5	
17.5	0	2.5	
20	0	2.5	
22.5	0	2.5	
25	0	2.5	
0	2.5	2.5	
2.5	2.5	2.5	
5	2.5	2.5	
7.5	2.5	2.5	
10	2.5	2.5	
12.5	2.5	2.5	
15	2.5	2.5	
17.5	2.5	2.5	
20	2.5	2.5	
22.5	2.5	2.5	
25	2.5	2.5	
0	5	2.5	
2.5	5	2.5	
5	5	2.5	
7.5	5	2.5	
10	5	2.5	
12.5	5	2.5	
15	5	2.5	
17.5	5	2.5	
20	5	2.5	
22.5	5	2.5	
25	5	2.5	
0	7.5	2.5	
2.5	7.5	2.5	
5	7.5	2.5	
7.5	7.5	2.5	
10	7.5	2.5	
12.5	7.5	2.5	
15	7.5	2.5	
17.5	7.5	2.5	
20	7.5	2.5	
22.5	7.5	2.5	
25	7.5	2.5	
0	10	2.5	
2.5	10	2.5	
5	10	2.5	
7.5	10	2.5	
10	10	2.5	
12.5	10	2.5	
15	10	2.5	
17.5	10	2.5	
20	10	2.5	
22.5	10	2.5	
25	10	2.5	
0	12.5	2.5	
2.5	12.5	2.5	
5	12.5	2.5	
7.5	12.5	2.5	
10	12.5	2.5	
12.5	12.5	2.5	
15	12.5	2.5	
17.5	12.5	2.5	
20	12.5	2.5	
22.5	12.5	2.5	
25	12.5	2.5	
0	15	2.5	
2.5	15	2.5	
5	15	2.5	
7.5	15	2.5	
10	15	2.5	
12.5	15	2.5	
15	15	2.5	
17.5	15	2.5	
20	15	2.5	
22.5	15	2.5	
25	15	2.5	
0	17.5	2.5	
2.5	17.5	2.5	
5	17.5	2.5	
7.5	17.5	2.5	
10	17.5	2.5	
12.5	17.5	2.5	
15	17.5	2.5	
17.5	17.5	2.5	
20	17.5	2.5	
22.5	17.5	2.5	
25	17.5	2.5	
0	20	2.5	
2.5	20	2.5	
5	20	2.5	
7.5	20	2.5	
10	20	2.5	
12.5	20	2.5	
15	20	2.5	
17.5	20	2.5	
20	20	2.5	
22.5	20	2.5	
25	20	2.5	
0	22.5	2.5	
2.5	22.5	2.5	
5	22.5	2.5	
7.5	22.5	2.5	
10	22.5	2.5	
12.5	22.5	2.5	
15	22.5	2.5	
17.5	22.5	2.5	
20	22.5	2.5	
22.5	22.5	2.5	
25	22.5	2.5	
0	25	2.5	
2.5	25	2.5	
5	25	2.5	
7.5	25	2.5	
10	25	2.5	
12.5	25	2.5	
15	25	2.5	
17.5	25	2.5	
20	25	2.5	
22.5	25	2.5	
25	25	2.5	
0	27.5	2.5	
2.5	27.5	2.5	
5	27.5	2.5	
7.5	27.5	2.5	
10	27.5	2.5	
12.5	27.5	2.5	
15	27.5	2.5	
17.5	27.5	2.5	
20	27.5	2.5	
22.5	27.5	2.5	
25	27.5	2.5	
0	30	2.5	
2.5	30	2.5	
5	30	2.5	
7.5	30	2.5	
10	30	2.5	
12.5	30	2.5	
15	30	2.5	
17.5	30	2.5	
20	30	2.5	
22.5	30	2.5	
25	30	2.5	
0	32.5	2.5	
2.5	32.5	2.5	
5	32.5	2.5	
7.5	32.5	2.5	
10	32.5	2.5	
12.5	32.5	2.5	
15	32.5	2.5	
17.5	32.5	2.5	
20	32.5	2.5	
22.5	32.5	2.5	
25	32.5	2.5	
0	35	2.5	
2.5	35	2.5	
5	35	2.5	
7.5	35	2.5	
10	35	2.5	
12.5	35	2.5	
15	35	2.5	
17.5	35	2.5	
20	35	2.5	
22.5	35	2.5	
25	35	2.5	
0	37.5	2.5	
2.5	37.5	2.5	
5	37.5	2.5	
7.5	37.5	2.5	
10	37.5	2.5	
12.5	37.5	2.5	
15	37.5	2.5	
17.5	37.5	2.5	
20	37.5	2.5	
22.5	37.5	2.5	
25	37.5	2.5	
0	40	2.5	
2.5	40	2.5	
5	40	2.5	
7.5	40	2.5	
10	40	2.5	
12.5	40	2.5	
15	40	2.5	
17.5	40	2.5	
20	40	2.5	
22.5	40	2.5	
25	40	2.5	
0	42.5	2.5	
2.5	42.5	2.5	
5	42.5	2.5	
7.5	42.5	2.5	
10	42.5	2.5	
12.5	42.5	2.5	
15	42.5	2.5	
17.5	42.5	2.5	
20	42.5	2.5	
22.5	42.5	2.5	
25	42.5	2.5	
0	45	2.5	
2.5	45	2.5	
5	45	2.5	
7.5	45	2.5	
10	45	2.5	
12.5	45	2.5	
15	45	2.5	
17.5	45	2.5	
20	45	2.5	
22.5	45	2.5	
25	45	2.5	
0	47.5	2.5	
2.5	47.5	2.5	
5	47.5	2.5	
7.5	47.5	2.5	
10	47.5	2.5	
12.5	47.5	2.5	
15	47.5	2.5	
17.5	47.5	2.5	
20	47.5	2.5	
22.5	47.5	2.5	
25	47.5	2.5	
0	50	2.5	
2.5	50	2.5	
5	50	2.5	
7.5	50	2.5	
10	50	2.5	
12.5	50	2.5	
15	50	2.5	
17.5	50	2.5	
20	50	2.5	
22.5	50	2.5	
25	50	2.5	
0	52.5	2.5	
2.5	52.5	2.5	
5	52.5	2.5	
7.5	52.5	2.5	
10	52.5	2.5	
12.5	52.5	2.5	
15	52.5	2.5	
17.5	52.5	2.5	
20	52.5	2.5	
22.5	52.5	2.5	
25	52.5	2.5	
0	55	2.5	
2.5	55	2.5	
5	55	2.5	
7.5	55	2.5	
10	55	2.5	
12.5	55	2.5	
15	55	2.5	
17.5	55	2.5	
20	55	2.5	
22.5	55	2.5	
25	55	2.5	
0	57.5	2.5	
2.5	57.5	2.5	
5	57.5	2.5	
7.5	57.5	2.5	
10	57.5	2.5	
12.5	57.5	2.5	
15	57.5	2.5	
17.5	57.5	2.5	
20	57.5	2.5	
22.5	57.5	2.5	
25	57.5	2.5	
0	60	2.5	
2.5	60	2.5	
5	60	2.5	
7.5	60	2.5	
10	60	2.5	
12.5	60	2.5	
15	60	2.5	
17.5	60	2.5	
20	60	2.5	
22.5	60	2.5	
25	60	2.5	
0	62.5	2.5	
2.5	62.5	2.5	
5	62.5	2.5	
7.5	62.5	2.5	
10	62.5	2.5	
12.5	62.5	2.5	
15	62.5	2.5	
17.5	62.5	2.5	
20	62.5	2.5	
22.5	62.5	2.5	
25	62.5	2.5	
0	0	5	
2.5	0	5	
5	0	5	
7.5	0	5	
10	0	5	
12.5	0	5	
15	0	5	
17.5	0	5	
20	0	5	
22.5	0	5	
25	0	5	
0	2.5	5	
2.5	2.5	5	
5	2.5	5	
7.5	2.5	5	
10	2.5	5	
12.5	2.5	5	
15	2.5	5	
17.5	2.5	5	
20	2.5	5	
22.5	2.5	5	
25	2.5	5	
0	5	5	
2.5	5	5	
5	5	5	
7.5	5	5	
10	5	5	
12.5	5	5	
15	5	5	
17.5	5	5	
20	5	5	
22.5	5	5	
25	5	5	
0	7.5	5	
2.5	7.5	5	
5	7.5	5	
7.5	7.5	5	
10	7.5	5	
12.5	7.5	5	
15	7.5	5	
17.5	7.5	5	
20	7.5	5	
22.5	7.5	5	
25	7.5	5	
0	10	5	
2.5	10	5	
5	10	5	
7.5	10	5	
10	10	5	
12.5	10	5	
15	10	5	
17.5	10	5	
20	10	5	
22.5	10	5	
25	10	5	
0	12.5	5	
2.5	12.5	5	
5	12.5	5	
7.5	12.5	5	
10	12.5	5	
12.5	12.5	5	
15	12.5	5	
17.5	12.5	5	
20	12.5	5	
22.5	12.5	5	
25	12.5	5	
0	15	5	
2.5	15	5	
5	15	5	
7.5	15	5	
10	15	5	
12.5	15	5	
15	15	5	
17.5	15	5	
20	15	5	
22.5	15	5	
25	15	5	
0	17.5	5	
2.5	17.5	5	
5	17.5	5	
7.5	17.5	5	
10	17.5	5	
12.5	17.5	5	
15	17.5	5	
17.5	17.5	5	
20	17.5	5	
22.5	17.5	5	
25	17.5	5	
0	20	5	
2.5	20	5	
5	20	5	
7.5	20	5	
10	20	5	
12.5	20	5	
15	20	5	
17.5	20	5	
20	20	5	
22.5	20	5	
25	20	5	
0	22.5	5	
2.5	22.5	5	
5	22.5	5	
7.5	22.5	5	
10	22.5	5	
12.5	22.5	5	
15	22.5	5	
17.5	22.5	5	
20	22.5	5	
22.5	22.5	5	
25	22.5	5	
0	25	5	
2.5	25	5	
5	25	5	
7.5	25	5	
10	25	5	
12.5	25	5	
15	25	5	
17.5	25	5	
20	25	5	
22.5	25	5	
25	25	5	
0	27.5	5	
2.5	27.5	5	
5	27.5	5	
7.5	27.5	5	
10	27.5	5	
12.5	27.5	5	
15	27.5	5	
17.5	27.5	5	
20	27.5	5	
22.5	27.5	5	
25	27.5	5	
0	30	5	
2.5	30	5	
5	30	5	
7.5	30	5	
10	30	5	
12.5	30	5	
15	30	5	
17.5	30	5	
20	30	5	
22.5	30	5	
25	30	5	
0	32.5	5	
2.5	32.5	5	
5	32.5	5	
7.5	32.5	5	
10	32.5	5	
12.5	32.5	5	
15	32.5	5	
17.5	32.5	5	
20	32.5	5	
22.5	32.5	5	
25	32.5	5	
0	35	5	
2.5	35	5	
5	35	5	
7.5	35	5	
10	35	5	
12.5	35	5	
15	35	5	
17.5	35	5	
20	35	5	
22.5	35	5	
25	35	5	
0	37.5	5	
2.5	37.5	5	
5	37.5	5	
7.5	37.5	5	
10	37.5	5	
12.5	37.5	5	
15	37.5	5	
17.5	37.5	5	
20	37.5	5	
22.5	37.5	5	
25	37.5	5	
0	40	5	
2.5	40	5	
5	40	5	
7.5	40	5	
10	40	5	
12.5	40	5	
15	40	5	
17.5	40	5	
20	40	5	
22.5	40	5	
25	40	5	
0	42.5	5	
2.5	42.5	5	
5	42.5	5	
7.5	42.5	5	
10	42.5	5	
12.5	42.5	5	
15	42.5	5	
17.5	42.5	5	
20	42.5	5	
22.5	42.5	5	
25	42.5	5	
0	45	5	
2.5	45	5	
5	45	5	
7.5	45	5	
10	45	5	
12.5	45	5	
15	45	5	
17.5	45	5	
20	45	5	
22.5	45	5	
25	45	5	
0	47.5	5	
2.5	47.5	5	
5	47.5	5	
7.5	47.5	5	
10	47.5	5	
12.5	47.5	5	
15	47.5	5	
17.5	47.5	5	
20	47.5	5	
22.5	47.5	5	
25	47.5	5	
0	50	5	
2.5	50	5	
5	50	5	
7.5	50	5	
10	50	5	
12.5	50	5	
15	50	5	
17.5	50	5	
20	50	5	
22.5	50	5	
25	50	5	
0	52.5	5	
2.5	52.5	5	
5	52.5	5	
7.5	52.5	5	
10	52.5	5	
12.5	52.5	5	
15	52.5	5	
17.5	52.5	5	
20	52.5	5	
22.5	52.5	5	
25	52.5	5	
0	55	5	
2.5	55	5	
5	55	5	
7.5	55	5	
10	55	5	
12.5	55	5	
15	55	5	
17.5	55	5	
20	55	5	
22.5	55	5	
25	55	5	
0	57.5	5	
2.5	57.5	5	
5	57.5	5	
7.5	57.5	5	
10	57.5	5	
12.5	57.5	5	
15	57.5	5	
17.5	57.5	5	
20	57.5	5	
22.5	57.5	5	
25	57.5	5	
0	60	5	
2.5	60	5	
5	60	5	
7.5	60	5	
10	60	5	
12.5	60	5	
15	60	5	
17.5	60	5	
20	60	5	
22.5	60	5	
25	60	5	
0	62.5	5	
2.5	62.5	5	
5	62.5	5	
7.5	62.5	5	
10	62.5	5	
12.5	62.5	5	
15	62.5	5	
17.5	62.5	5	
20	62.5	5	
22.5	62.5	5	
25	62.5	5	
0	0	7.5	
2.5	0	7.5	
5	0	7.5	
7.5	0	7.5	
10	0	7.5	
12.5	0	7.5	
15	0	7.5	
17.5	0	7.5	
20	0	7.5	
22.5	0	7.5	
25	0	7.5	
0	2.5	7.5	
2.5	2.5	7.5	
5	2.5	7.5	
7.5	2.5	7.5	
10	2.5	7.5	
12.5	2.5	7.5	
15	2.5	7.5	
17.5	2.5	7.5	
20	2.5	7.5	
22.5	2.5	7.5	
25	2.5	7.5	
0	5	7.5	
2.5	5	7.5	
5	5	7.5	
7.5	5	7.5	
10	5	7.5	
12.5	5	7.5	
15	5	7.5	
17.5	5	7.5	
20	5	7.5	
22.5	5	7.5	
25	5	7.5	
0	7.5	7.5	
2.5	7.5	7.5	
5	7.5	7.5	
7.5	7.5	7.5	
[...]
CELL_DATA	12500
SCALARS Rho0 float
LOOKUP_TABLE default
1
1
1
1
1
1
1
1
1
1
1
1
1
1
1
1
1
1
1
1
1
1
1
1
1
1
1
1
1e-10
1e-10
1e-10
1e-10
1e-10
1e-10
1e-10
1e-10
1e-10
1e-10
1e-10
1e-10
1e-10
1e-10
1e-10
1e-10
1e-10
1e-10
1e-10
1e-10
1e-10
1e-10
1e-10
1e-10
1e-10
1e-10
1e-10
1e-10
1e-10
1e-10
1e-10
1e-10
1e-10
1e-10
1e-10
1e-10
1e-10
1e-10
1e-10
1e-10
1e-10
1e-10
1e-10
1e-10
1e-10
1e-10
1e-10
1e-10
1e-10
1e-10
1e-10
1e-10
1e-10
1e-10
1e-10
1e-10
1e-10
1e-10
1e-10
1e-10
1e-10
1e-10
1e-10
1e-10
1e-10
1e-10
1e-10
1e-10
1e-10
1e-10
1e-10
1e-10
1e-10
1e-10
1e-10
1e-10
1e-10
1e-10
1e-10
1e-10
1e-10
1e-10
1e-10
1e-10
1e-10
1e-10
1e-10
1e-10
1e-10
1e-10
1e-10
1e-10
1e-10
1e-10
1e-10
1e-10
1e-10
1e-10
1e-10
1e-10
1e-10
1e-10
1e-10
1e-10
1e-10
1e-10
1e-10
1e-10
1e-10
1e-10
1e-10
1e-10
1e-10
1e-10
1e-10
1e-10
1e-10
1e-10
1e-10
1e-10
1e-10
1e-10
1e-10
1e-10
1e-10
1e-10
1e-10
1e-10
1e-10
1e-10
1e-10
1e-10
1e-10
1e-10
1e-10
1e-10
1e-10
1e-10
1e-10
1e-10
1e-10
1e-10
1e-10
1e-10
1e-10
1e-10
1e-10
1e-10
1e-10
1e-10
1e-10
1e-10
1e-10
1e-10
1e-10
1e-10
1e-10
1e-10
1e-10
1e-10
1e-10
1e-10
1e-10
1e-10
1e-10
1e-10
1e-10
1e-10
1e-10
1e-10
1e-10
1e-10
1e-10
1e-10
1e-10
1e-10
1e-10
1e-10
1e-10
1e-10
1e-10
1e-10
1e-10
1e-10
1e-10
1e-10
1e-10
1e-10
1e-10
1e-10
1e-10
1e-10
1e-10
1e-10
1e-10
1e-10
1e-10
1e-10
1e-10
1e-10
1e-10
1e-10
1e-10
1e-10
1e-10
1e-10
1e-10
1e-10
1e-10
1e-10
1e-10
1e-10
1e-10
1e-10
1e-10
1e-10
1e-10
1e-10
1e-10
1e-10
1e-10
1e-10
1e-10
1e-10
1e-10
1e-10
1e-10
1e-10
1e-10
1e-10
1e-10
1e-10
1e-10
1e-10
1e-10
1e-10
1e-10
1e-10
1e-10
1e-10
1e-10
1e-10
1e-10
1e-10
1e-10
1e-10
1e-10
1e-10
1e-10
1e-10
1e-10
1e-10
1e-10
1e-10
1e-10
1e-10
1e-10
1e-10
1e-10
1e-10
1e-10
1e-10
1e-10
1e-10
1e-10
1e-10
1e-10
1e-10
1e-10
1e-10
1e-10
1e-10
1e-10
1e-10
1e-10
1e-10
1e-10
1e-10
1e-10
1e-10
1e-10
1e-10
1e-10
1e-10
1e-10
1e-10
1e-10
1e-10
1e-10
1e-10
1e-10
1e-10
1e-10
1e-10
1e-10
1e-10
1e-10
1e-10
1e-10
1e-10
1e-10
1e-10
1e-10
1e-10
1e-10
1e-10
1e-10
1e-10
1e-10
1e-10
1e-10
1e-10
1e-10
1e-10
1e-10
1e-10
1e-10
1e-10
1e-10
1e-10
1e-10
1e-10
1e-10
1e-10
1e-10
1e-10
1e-10
1e-10
1e-10
1e-10
1e-10
1e-10
1e-10
1e-10
1e-10
1e-10
1e-10
1e-10
1e-10
1e-10
1e-10
1e-10
1e-10
1e-10
1e-10
1e-10
1e-10
1e-10
1e-10
1e-10
1e-10
1e-10
1e-10
1e-10
1e-10
1e-10
1e-10
1e-10
1e-10
1e-10
1e-10
1e-10
1e-10
1e-10
1e-10
1e-10
1e-10
1e-10
1e-10
1e-10
1e-10
1e-10
1e-10
1e-10
1e-10
1e-10
1e-10
1e-10
1e-10
1e-10
1e-10
1e-10
1e-10
1e-10
1e-10
1e-10
1e-10
1e-10
1e-10
1e-10
1e-10
1e-10
1e-10
1e-10
1e-10
1e-10
1e-10
1e-10
1e-10
1e-10
1e-10
1e-10
1e-10
1e-10
1e-10
1e-10
1e-10
1e-10
1e-10
1e-10
1e-10
1e-10
1e-10
1e-10
1e-10
1e-10
1e-10
1e-10
1e-10
1e-10
1e-10
1e-10
1e-10
1e-10
1e-10
1e-10
1e-10
1e-10
1e-10
1e-10
1e-10
1e-10
1e-10
1e-10
1e-10
1e-10
1e-10
1e-10
1e-10
1e-10
1e-10
1e-10
1e-10
1e-10
1e-10
1e-10
1e-10
1e-10
1e-10
1e-10
1e-10
1e-10
1e-10
1e-10
1e-10
1e-10
1e-10
1e-10
1e-10
1e-10
1e-10
1e-10
1e-10
1e-10
1e-10
1e-10
1e-10
1e-10
1e-10
1e-10
1e-10
1e-10
1e-10
1e-10
1e-10
1e-10
1e-10
1e-10
1e-10
1e-10
1e-10
1e-10
1e-10
1e-10
1e-10
1e-10
1e-10
1e-10
1e-10
1e-10
1e-10
1e-10
1e-10
1e-10
1e-10
1e-10
1e-10
1e-10
1e-10
1e-10
1e-10
1e-10
1e-10
1e-10
1e-10
1e-10
1e-10
1e-10
1e-10
1e-10
1e-10
1e-10
1e-10
1e-10
1e-10
1e-10
1e-10
1e-10
1e-10
1e-10
1e-10
1e-10
1e-10
1e-10
1e-10
1e-10
1e-10
1e-10
1e-10
1e-10
1e-10
1e-10
1e-10
1e-10
1e-10
1e-10
1e-10
1e-10
1e-10
1e-10
1e-10
1e-10
1e-10
1e-10
1e-10
1e-10
1e-10
1e-10
1e-10
1e-10
1e-10
1e-10
1e-10
1e-10
1e-10
1e-10
1e-10
1e-10
1e-10
1e-10
1e-10
1e-10
1e-10
1e-10
1e-10
1e-10
1e-10
1e-10
1e-10
1e-10
1e-10
1e-10
1e-10
1e-10
1e-10
1e-10
1e-10
1e-10
1e-10
1e-10
1e-10
1e-10
1e-10
1e-10
1e-10
1e-10
1e-10
1e-10
1e-10
1e-10
1e-10
1e-10
1e-10
1e-10
1e-10
1e-10
1e-10
1e-10
1e-10
1e-10
1e-10
1e-10
1e-10
1e-10
1e-10
1e-10
1e-10
1e-10
1e-10
1e-10
1e-10
1e-10
1e-10
1e-10
1e-10
1e-10
1e-10
1e-10
1e-10
1e-10
1e-10
1e-10
1e-10
1e-10
1e-10
1e-10
1e-10
1e-10
1e-10
1e-10
1e-10
1e-10
1e-10
1e-10
1e-10
1e-10
1e-10
1e-10
1e-10
1e-10
1e-10
1e-10
1e-10
1e-10
1e-10
1e-10
1e-10
1e-10
1e-10
1e-10
1e-10
1e-10
1e-10
1e-10
1e-10
1e-10
1e-10
1e-10
1e-10
1e-10
1e-10
1e-10
1e-10
1e-10
1e-10
1e-10
1e-10
1e-10
1e-10
1e-10
1e-10
1e-10
1e-10
1e-10
1e-10
1e-10
1e-10
1e-10
1e-10
1e-10
1e-10
1e-10
1e-10
1e-10
1e-10
1e-10
1e-10
1e-10
1e-10
1e-10
1e-10
1e-10
1e-10
1e-10
1e-10
1e-10
1e-10
1e-10
1e-10
1e-10
1e-10
1e-10
1e-10
1e-10
1e-10
1e-10
1e-10
1e-10
1e-10
1e-10
1e-10
1e-10
1e-10
1e-10
1e-10
1e-10
1e-10
1e-10
1e-10
1e-10
1e-10
1e-10
1e-10
1e-10
1e-10
1e-10
1e-10
1e-10
1e-10
1e-10
1e-10
1e-10
1e-10
1e-10
1e-10
1e-10
1e-10
1e-10
1e-10
1e-10
1e-10
1e-10
1e-10
1e-10
1e-10
1e-10
1e-10
1e-10
1e-10
1e-10
1e-10
1e-10
1e-10
1e-10
1e-10
1e-10
1e-10
1e-10
1e-10
1e-10
1e-10
1e-10
1e-10
1e-10
1e-10
1e-10
1e-10
1e-10
1e-10
1e-10
1e-10
1e-10
1e-10
1e-10
1e-10
1e-10
1e-10
1e-10
1e-10
1e-10
1e-10
1e-10
1e-10
1e-10
1e-10
1e-10
1e-10
1e-10
1e-10
1e-10
1e-10
1e-10
1e-10
1e-10
1e-10
1e-10
1e-10
1e-10
1e-10
1e-10
1e-10
1e-10
1e-10
1e-10
1e-10
1e-10
1e-10
1e-10
1e-10
1e-10
1e-10
1e-10
1e-10
1e-10
1e-10
1e-10
1e-10
1e-10
1e-10
1e-10
1e-10
1e-10
1e-10
1e-10
1e-10
1e-10
1e-10
1e-10
1e-10
1e-10
1e-10
1e-10
1e-10
1e-10
1e-10
1e-10
1e-10
1e-10
1e-10
1e-10
1e-10
1e-10
1e-10
1e-10
1e-10
1e-10
1e-10
1e-10
1e-10
1e-10
1e-10
1e-10
1e-10
1e-10
1e-10
1e-10
1e-10
1e-10
1e-10
1e-10
1e-10
1e-10
1e-10
1e-10
1e-10
1e-10
1e-10
1e-10
1e-10
1e-10
1e-10
1e-10
1e-10
1e-10
1e-10
1e-10
1e-10
1e-10
1e-10
1e-10
1e-10
1e-10
1e-10
1e-10
1e-10
1e-10
1e-10
1e-10
1e-10
1e-10
1e-10
1e-10
1e-10
1e-10
1e-10
1e-10
1e-10
1e-10
1e-10
1e-10
1e-10
1e-10
1e-10
1e-10
1e-10
1e-10
1e-10
1e-10
1e-10
1e-10
1e-10
1e-10
1e-10
1e-10
1e-10
1e-10
1e-10
1e-10
1e-10
1e-10
1e-10
1e-10
1e-10
1e-10
1e-10
1e-10
1e-10
1e-10
1e-10
1e-10
1e-10
1e-10
1e-10
1e-10
1e-10
1e-10
1e-10
1e-10
1e-10
1e-10
1e-10
1e-10
1e-10
1e-10
1e-10
1e-10
1e-10
1e-10
1e-10
1e-10
1e-10
1e-10
1e-10
1e-10
1e-10
1e-10
1e-10
1e-10
1e-10
1e-10
1e-10
1e-10
1e-10
1e-10
1e-10
1e-10
1e-10
1e-10
1e-10
1e-10
1e-10
1e-10
1e-10
1e-10
1e-10
1e-10
1e-10
1e-10
1e-10
1e-10
1e-10
1e-10
1e-10
1e-10
1e-10
1e-10
1e-10
1e-10
1e-10
1e-10
1e-10
1e-10
1e-10
1e-10
1e-10
1e-10
1e-10
1e-10
1e-10
1e-10
1e-10
1e-10
1e-10
1e-10
1e-10
1e-10
1e-10
1e-10
1e-10
1e-10
1e-10
1e-10
1e-10
1e-10
1e-10
1e-10
1e-10
1e-10
1e-10
1e-10
1e-10
1e-10
1e-10
1e-10
1e-10
1e-10
1e-10
1e-10
1e-10
1e-10
1e-10
1e-10
1e-10
1e-10
1e-10
1e-10
1e-10
1e-10
1e-10
1e-10
1e-10
1e-10
1e-10
1e-10
1e-10
1e-10
1e-10
1e-10
1e-10
1e-10
1e-10
1e-10
1e-10
1e-10
1e-10
1e-10
1e-10
1e-10
1e-10
1e-10
1e-10
1e-10
1e-10
1e-10
1e-10
1e-10
1e-10
1e-10
1e-10
1e-10
1e-10
1e-10
1e-10
1e-10
1e-10
1e-10
1e-10
1e-10
1e-10
1e-10
1e-10
1e-10
1e-10
1e-10
1e-10
1e-10
1e-10
1e-10
1e-10
1e-10
1e-10
1e-10
1e-10
1e-10
1e-10
1e-10
1e-10
1e-10
1e-10
1e-10
1e-10
1e-10
1e-10
1e-10
1e-10
1e-10
1e-10
1e-10
1e-10
1e-10
1e-10
1e-10
1e-10
1e-10
1e-10
1e-10
1e-10
1e-10
1e-10
1e-10
1e-10
1e-10
1e-10
1e-10
1e-10
1e-10
1e-10
1e-10
1e-10
1e-10
1e-10
1e-10
1e-10
1e-10
1e-10
1e-10
1e-10
1e-10
1e-10
1e-10
1e-10
1e-10
1e-10
1e-10
1e-10
1e-10
1e-10
1e-10
1e-10
1e-10
1e-10
1e-10
1e-10
1e-10
1e-10
1e-10
1e-10
1e-10
1e-10
1e-10
1e-10
1e-10
1e-10
1e-10
1e-10
1e-10
1e-10
1e-10
1e-10
1e-10
1e-10
1e-10
1
1
1
1
1
1
1
1
1
1
1
1
1
1
1
1
1
1
1
1
1
1
1
1
1
1
1
1
1
1
1
0.662197
1
0.874448
1e-10
1e-10
1e-10
1e-10
1e-10
1e-10
1e-10
1e-10
1e-10
1e-10
1e-10
1e-10
1e-10
1e-10
1e-10
1e-10
1
1
1
1
1
1
1
1
1
1
1
1
1
1
1
1
1
1
1
1
1
1
1
1
1
1
1
1
1
1
1
1
1e-10
1e-10
1e-10
1e-10
1e-10
1e-10
1e-10
1e-10
1e-10
1e-10
1e-10
1e-10
1e-10
1e-10
1e-10
1e-10
1e-10
1e-10
1e-10
1
1e-10
1e-10
1e-10
1e-10
1e-10
1e-10
1e-10
1e-10
1e-10
1e-10
1e-10
1e-10
1e-10
1e-10
1e-10
1e-10
0.231589
1e-10
2.94462e-08
1e-10
1e-10
1e-10
1e-10
1
1
1
1
1
1e-10
1
1e-10
1e-10
1e-10
1e-10
1e-10
1e-10
1e-10
1e-10
1e-10
1e-10
1e-10
1e-10
1e-10
1e-10
1e-10
1e-10
1e-10
1e-10
1e-10
1e-10
1
1e-10
1e-10
1e-10
1e-10
1e-10
1e-10
1e-10
1e-10
1e-10
1e-10
1e-10
1e-10
1e-10
1e-10
1e-10
1e-10
0.0106241
1e-10
1e-10
1e-10
1e-10
1e-10
1e-10
1e-10
1e-10
1e-10
1e-10
1
1e-10
1e-10
1e-10
1e-10
1e-10
1e-10
1e-10
1e-10
1e-10
1e-10
1e-10
1e-10
1e-10
1e-10
1e-10
1e-10
1e-10
1e-10
1e-10
1e-10
1e-10
1e-10
1
0.834007
1
1e-10
1e-10
1e-10
1e-10
1e-10
1e-10
1e-10
1e-10
1e-10
1e-10
1e-10
1e-10
1e-10
1e-10
1e-10
1e-10
1e-10
1e-10
1e-10
1e-10
1e-10
1e-10
1e-10
1e-10
1e-10
1e-10
1e-10
1e-10
1e-10
1e-10
1e-10
1e-10
1e-10
1e-10
1e-10
1e-10
1e-10
1e-10
1e-10
1e-10
1e-10
1e-10
1e-10
1e-10
1e-10
1e-10
1e-10
1e-10
1
1e-10
1e-10
1e-10
1e-10
1e-10
1e-10
1e-10
1e-10
1e-10
1e-10
1e-10
1e-10
1e-10
1e-10
1e-10
1e-10
1e-10
1e-10
1e-10
1e-10
1e-10
1e-10
1e-10
1e-10
1e-10
1e-10
1e-10
1e-10
1e-10
1e-10
1e-10
1e-10
1e-10
1e-10
1e-10
1e-10
1e-10
1e-10
1e-10
1e-10
1e-10
1e-10
1e-10
1e-10
1e-10
1e-10
1e-10
1e-10
1e-10
1e-10
1e-10
1e-10
1e-10
1e-10
1e-10
1e-10
1e-10
1e-10
1e-10
1e-10
1e-10
1e-10
1e-10
1e-10
1e-10
1e-10
1e-10
1e-10
1e-10
1e-10
1e-10
1e-10
1e-10
1e-10
1e-10
1e-10
1e-10
1e-10
1e-10
1e-10
1e-10
1e-10
1e-10
1e-10
1e-10
1e-10
1e-10
1e-10
1e-10
1e-10
1e-10
1e-10
1e-10
1e-10
1e-10
1e-10
1e-10
1e-10
1e-10
1e-10
1e-10
1e-10
1e-10
1e-10
1e-10
1e-10
1e-10
1e-10
1e-10
1e-10
1e-10
1e-10
1e-10
1e-10
1e-10
1e-10
1e-10
1e-10
1e-10
1e-10
1e-10
1e-10
1e-10
1e-10
1e-10
0.823393
1e-10
1e-10
1e-10
1e-10
1e-10
1e-10
1e-10
1e-10
1e-10
1e-10
1e-10
1e-10
1e-10
1e-10
1e-10
1e-10
1e-10
1e-10
1e-10
1e-10
1e-10
1e-10
1e-10
1e-10
1e-10
1e-10
1e-10
1e-10
1e-10
1e-10
1e-10
1e-10
1e-10
1e-10
1e-10
1e-10
1e-10
1e-10
1e-10
1e-10
1e-10
1e-10
1e-10
1e-10
1e-10
1e-10
1e-10
1e-10
1.88041e-07
1e-10
1e-10
1e-10
1e-10
1e-10
1e-10
1e-10
1e-10
1e-10
1e-10
1e-10
1e-10
1e-10
1e-10
1e-10
1e-10
1e-10
1e-10
1e-10
1e-10
1e-10
1e-10
1e-10
1e-10
1e-10
1e-10
1e-10
1e-10
1e-10
1e-10
1e-10
1e-10
1e-10
1e-10
1e-10
1e-10
1e-10
1e-10
1e-10
1e-10
1e-10
1e-10
1e-10
1e-10
1e-10
1e-10
1e-10
1e-10
1e-10
1e-10
1e-10
1e-10
1e-10
1e-10
1e-10
1e-10
1e-10
1e-10
1e-10
1e-10
1e-10
1e-10
1e-10
1e-10
1e-10
1e-10
1e-10
1e-10
1e-10
1e-10
1e-10
1e-10
1e-10
1e-10
1e-10
1e-10
1e-10
1e-10
1e-10
1e-10
1e-10
1e-10
1e-10
1e-10
1e-10
1e-10
1e-10
1e-10
1e-10
1e-10
1e-10
1e-10
1e-10
1e-10
1e-10
1e-10
1e-10
1e-10
1e-10
1e-10
1e-10
1e-10
1e-10
1e-10
1e-10
1e-10
1e-10
1e-10
1e-10
1e-10
1e-10
1e-10
1e-10
1e-10
1e-10
1e-10
1e-10
1e-10
1e-10
1e-10
1e-10
1e-10
1e-10
1e-10
1e-10
1e-10
1e-10
1e-10
1e-10
1e-10
1e-10
1e-10
1e-10
1e-10
1e-10
1e-10
1e-10
1e-10
1e-10
1e-10
1e-10
1e-10
1e-10
1e-10
1e-10
1e-10
1e-10
1e-10
1e-10
1e-10
1e-10
1e-10
1e-10
1e-10
1e-10
1e-10
1e-10
1e-10
1e-10
1e-10
1e-10
1e-10
1e-10
1e-10
1e-10
1e-10
1e-10
1e-10
1e-10
1e-10
1e-10
1e-10
1e-10
1e-10
1e-10
1e-10
1e-10
1e-10
1e-10
1e-10
1e-10
1e-10
1e-10
1e-10
1e-10
1e-10
1e-10
1e-10
1e-10
1e-10
1e-10
1e-10
1e-10
1e-10
1e-10
1e-10
1e-10
1e-10
1e-10
1e-10
1e-10
1e-10
1e-10
1e-10
1e-10
1e-10
1e-10
1e-10
1e-10
1e-10
1e-10
1e-10
1e-10
1e-10
1e-10
1e-10
1e-10
1e-10
1e-10
1e-10
1e-10
1e-10
1e-10
1e-10
1e-10
1e-10
1e-10
1e-10
1e-10
1e-10
1e-10
1e-10
1e-10
1e-10
1e-10
1e-10
1e-10
1e-10
1e-10
1e-10
1e-10
1e-10
1e-10
1e-10
1e-10
1e-10
1e-10
1e-10
1e-10
1e-10
1e-10
1e-10
1e-10
1e-10
1e-10
1e-10
1e-10
1e-10
1e-10
1e-10
1e-10
1e-10
1e-10
1e-10
1e-10
1e-10
1e-10
1e-10
1e-10
1e-10
1e-10
1e-10
1e-10
1e-10
1e-10
1e-10
1e-10
1e-10
1e-10
1e-10
1e-10
1e-10
1e-10
1e-10
1e-10
1e-10
1e-10
1e-10
1e-10
1e-10
1e-10
1e-10
1e-10
1e-10
1e-10
1e-10
1e-10
1e-10
1e-10
1e-10
1e-10
1e-10
1e-10
1e-10
1e-10
1e-10
1e-10
1e-10
1e-10
1e-10
1e-10
1e-10
1e-10
1e-10
1e-10
1e-10
1e-10
1e-10
1e-10
1e-10
1e-10
1e-10
1e-10
1e-10
1e-10
1e-10
1e-10
1e-10
1e-10
1e-10
1e-10
1e-10
1e-10
1e-10
1e-10
1e-10
1e-10
1e-10
1e-10
1e-10
1e-10
1e-10
1e-10
1e-10
1e-10
1e-10
1e-10
1e-10
1e-10
1e-10
1e-10
1e-10
1e-10
1e-10
1e-10
1e-10
1e-10
1e-10
1e-10
1e-10
1e-10
1e-10
1e-10
1e-10
1e-10
1e-10
1e-10
1e-10
1e-10
1e-10
1e-10
1e-10
1e-10
1e-10
1e-10
1e-10
1e-10
1e-10
1e-10
1e-10
1e-10
1e-10
1e-10
1e-10
1e-10
1e-10
1e-10
1e-10
1e-10
1e-10
1e-10
1e-10
1e-10
1e-10
1e-10
1e-10
1e-10
1e-10
1e-10
1e-10
1e-10
1e-10
1e-10
1e-10
1e-10
1e-10
1e-10
1e-10
1e-10
1e-10
1e-10
1e-10
1e-10
1e-10
1e-10
1e-10
1e-10
1e-10
1e-10
1e-10
1e-10
1e-10
1e-10
1e-10
1e-10
1e-10
1e-10
1e-10
1e-10
1e-10
1e-10
1e-10
1e-10
1e-10
1e-10
1e-10
1e-10
1e-10
1e-10
1e-10
1e-10
1e-10
1e-10
1e-10
1e-10
1e-10
1e-10
1e-10
1e-10
1e-10
1e-10
1e-10
1e-10
1e-10
1e-10
1e-10
1e-10
1e-10
1e-10
1e-10
1e-10
1e-10
1e-10
1e-10
1e-10
1e-10
1e-10
1e-10
1e-10
1e-10
1e-10
1e-10
1e-10
1e-10
1e-10
1e-10
1e-10
1e-10
1e-10
1e-10
1e-10
1e-10
1e-10
1e-10
1e-10
1e-10
1e-10
1e-10
1e-10
1e-10
1e-10
1e-10
1e-10
1e-10
1e-10
1e-10
1e-10
1e-10
1e-10
1e-10
1e-10
1e-10
1e-10
1e-10
1e-10
1e-10
1e-10
1e-10
1e-10
1e-10
1e-10
1e-10
1e-10
1e-10
1e-10
1e-10
1e-10
1e-10
1e-10
1e-10
1e-10
1e-10
1e-10
1e-10
1e-10
0.0324433
1e-10
1e-10
1e-10
1e-10
1e-10
1e-10
1e-10
1e-10
1e-10
1e-10
1e-10
1e-10
1e-10
1e-10
1e-10
1e-10
1e-10
1e-10
1e-10
1e-10
1e-10
1e-10
1e-10
1e-10
0.888356
1e-10
1e-10
1e-10
1e-10
1e-10
1e-10
1e-10
1e-10
1e-10
1e-10
1e-10
1e-10
1e-10
1e-10
1e-10
1e-10
1e-10
1e-10
1e-10
1e-10
1e-10
1e-10
1e-10
1
1e-10
1e-10
1e-10
1e-10
1e-10
1e-10
1e-10
1e-10
1e-10
1e-10
1e-10
1e-10
1e-10
1e-10
1e-10
1e-10
1e-10
1e-10
1e-10
1e-10
1e-10
1e-10
1e-10
1e-10
1e-10
1e-10
0.900098
1e-10
1e-10
1e-10
1e-10
1e-10
1e-10
1e-10
1e-10
1e-10
1e-10
1e-10
1e-10
1e-10
1e-10
1e-10
1e-10
1e-10
1e-10
1e-10
1e-10
1e-10
1
1
1e-10
1e-10
1e-10
1e-10
1e-10
1e-10
1e-10
1e-10
1e-10
1e-10
1e-10
1e-10
1e-10
1e-10
1e-10
1e-10
1e-10
1e-10
1e-10
1e-10
1e-10
1e-10
1e-10
1e-10
1e-10
1e-10
1e-10
1e-10
1e-10
1e-10
1e-10
1e-10
1e-10
1e-10
1e-10
1e-10
1e-10
1e-10
1e-10
1e-10
1e-10
1e-10
1e-10
1e-10
1e-10
1e-10
1e-10
1e-10
1
0.519234
1
1e-10
1e-10
1e-10
1e-10
1e-10
1e-10
1e-10
1e-10
1e-10
1e-10
1e-10
1e-10
1e-10
1e-10
1e-10
1e-10
1e-10
1e-10
1e-10
1e-10
1e-10
1e-10
1e-10
1e-10
1e-10
1e-10
1e-10
1e-10
1e-10
1e-10
1e-10
1e-10
1e-10
1e-10
1e-10
1e-10
1e-10
1e-10
1e-10
1e-10
1e-10
1e-10
1e-10
1e-10
1e-10
1e-10
1
1e-10
1e-10
1e-10
1e-10
1e-10
1e-10
1e-10
1e-10
1e-10
1e-10
1e-10
1e-10
1e-10
1e-10
1e-10
1e-10
1e-10
1e-10
1e-10
1e-10
1e-10
1e-10
1e-10
1e-10
1e-10
1e-10
1e-10
1e-10
1e-10
1e-10
1e-10
1e-10
1e-10
1e-10
1e-10
1e-10
1e-10
1e-10
1e-10
1e-10
1e-10
1e-10
1e-10
1e-10
1e-10
1e-10
1e-10
1e-10
1
1e-10
1e-10
1e-10
1e-10
1e-10
1e-10
1e-10
1e-10
1e-10
1e-10
1e-10
1e-10
1e-10
1e-10
1e-10
1e-10
1e-10
1e-10
1e-10
1e-10
1e-10
1e-10
1e-10
1e-10
1e-10
1e-10
1e-10
1e-10
1e-10
1
1
1
1
1
1e-10
1e-10
1e-10
1e-10
1e-10
1e-10
1e-10
1e-10
1e-10
1e-10
1e-10
1e-10
1e-10
1e-10
1
1
1
1
1
1
1
1
1
1
1
1
1
1
1
1
1
1
1
1
1
1
1
1
1
1
1
1
1
1
1
1
1e-10
1e-10
1e-10
1e-10
1e-10
1e-10
1e-10
1e-10
1e-10
1e-10
1e-10
1e-10
1e-10
1e-10
1e-10
1e-10
1e-10
1e-10
1
1
1
1
1
1
1
1
1
1
1
1
1
1
1
1
1
1
1
1
1
1
1
1
1
1
1
1
1
1
1
1
1
1
1e-10
1e-10
1e-10
1e-10
1e-10
1e-10
1e-10
1e-10
1e-10
1e-10
1e-10
1e-10
1e-10
1e-10
1e-10
1e-10
1e-10
1e-10
1e-10
1e-10
1e-10
1
1
1
1
1
1e-10
1e-10
1e-10
1e-10
1
1
1
1e-10
1
1e-10
1e-10
8.17498e-06
1e-10
1e-10
1e-10
1e-10
0.434126
1e-10
1e-10
1
1
1
1
1
1
1
1e-10
1e-10
1e-10
1e-10
1e-10
1e-10
1e-10
1e-10
1e-10
1e-10
1e-10
1e-10
1e-10
1e-10
1e-10
1e-10
1
1e-10
1e-10
1e-10
1
1e-10
1
1
1
1
1e-10
1e-10
0.451261
0.951368
1e-10
1
1e-10
1e-10
0.000377663
0.000163381
1.2615e-09
1.89e-10
1e-10
1e-10
1e-10
1e-10
1
0.363289
1e-10
1e-10
1
1e-10
1
1
1
1
1e-10
1e-10
1e-10
1e-10
1e-10
1e-10
1e-10
1e-10
1e-10
1e-10
1e-10
1e-10
1e-10
1e-10
1e-10
1
1e-10
1
1e-10
1
0.408105
1
1e-10
1
1
1
0.435518
0.41807
0.763437
1e-10
1
0.776508
1
0.276232
1e-10
1e-10
1e-10
1e-10
1e-10
1e-10
1e-10
1
1e-10
1
1e-10
1
1e-10
1
1e-10
1
1
1e-10
1e-10
1e-10
1e-10
1e-10
1e-10
1e-10
1e-10
1e-10
1e-10
1e-10
1e-10
1e-10
1e-10
1
1
1e-10
1
0.949475
1
0.511821
1
1e-10
1e-10
1
1
1
1e-10
0.794348
0.201991
1e-10
1e-10
0.633758
0.783878
1e-10
1e-10
1e-10
1e-10
1e-10
1e-10
1e-10
1
1e-10
1
0.569699
1
1e-10
1
1e-10
1
1
1e-10
1e-10
1e-10
1e-10
1e-10
1e-10
1e-10
1e-10
1e-10
1e-10
1e-10
1e-10
1e-10
1e-10
1
1
1
1
0.521347
1
1e-10
0.995369
0.868988
1e-10
1
1
1e-10
1e-10
1e-10
1e-10
1e-10
1e-10
1e-10
1e-10
1e-10
1e-10
1e-10
1e-10
1e-10
1
1e-10
1
1e-10
1
1e-10
1
1e-10
1
1e-10
1e-10
1
1e-10
1e-10
1e-10
1e-10
1e-10
1e-10
1e-10
1e-10
1e-10
1e-10
1e-10
1e-10
1e-10
1e-10
1
0.92516
1
1e-10
0.369618
0.852221
1e-10
1e-10
1e-10
1e-10
1e-10
1
1e-10
1e-10
1e-10
1e-10
1e-10
1e-10
1e-10
1e-10
1e-10
1e-10
1e-10
1
1
1e-10
1e-10
1
1e-10
0.955739
1e-10
1
0.498628
1
0.758448
0.240278
1
1e-10
1e-10
1e-10
1e-10
1e-10
1e-10
1e-10
1e-10
1e-10
1e-10
1e-10
1e-10
1e-10
1e-10
1
0.552555
0.966083
0.996797
1e-10
1e-10
1e-10
1e-10
1e-10
1e-10
1e-10
1
1e-10
1e-10
1e-10
1e-10
1e-10
1e-10
1e-10
1e-10
1e-10
1e-10
1
1e-10
1
1
1e-10
1
1e-10
1e-10
0.601707
0.640434
1e-10
0.785563
0.772806
1e-10
1e-10
1e-10
1e-10
1e-10
1e-10
1e-10
1e-10
1e-10
1e-10
1e-10
1e-10
1e-10
1e-10
1e-10
1e-10
1e-10
1e-10
1e-10
1e-10
1e-10
1e-10
1e-10
1e-10
1e-10
1e-10
1e-10
1
1e-10
1e-10
1e-10
0.0472762
1e-10
1e-10
1e-10
1e-10
1
8.93956e-09
0.984507
1
1e-10
1
1e-10
1
0.732258
1e-10
0.568916
0.634865
1e-10
0.542413
0.517633
1e-10
1e-10
1e-10
1e-10
1e-10
1e-10
1e-10
1e-10
1e-10
1e-10
1e-10
1e-10
1e-10
1e-10
1e-10
1e-10
1e-10
1e-10
1e-10
1e-10
1e-10
1e-10
1e-10
1e-10
1e-10
1e-10
1e-10
1
1e-10
0.0361292
0.133226
1e-10
1e-10
1e-10
1
0.157797
0.803954
0.973797
1e-10
1
1e-10
0.741305
0.550531
0.774954
0.777941
1e-10
0.534974
0.531933
1e-10
0.523583
1e-10
1e-10
1e-10
1e-10
1e-10
1e-10
1e-10
1e-10
1e-10
1e-10
1e-10
1e-10
1e-10
1e-10
1e-10
1e-10
1e-10
1e-10
1e-10
1e-10
1e-10
1e-10
1e-10
1e-10
1e-10
1e-10
1e-10
1e-10
1
0.92394
1e-10
0.869702
1e-10
1
1e-10
0.90972
0.85
0.526341
0.83219
0.214826
0.722801
0.512074
0.604455
0.651735
0.724542
0.85
1e-10
0.00280694
0.787866
1e-10
1e-10
1e-10
1e-10
1e-10
1e-10
1e-10
1e-10
1e-10
1e-10
1e-10
1e-10
1e-10
1e-10
1e-10
1e-10
1e-10
1e-10
1e-10
1e-10
1e-10
1e-10
1e-10
1e-10
1e-10
1e-10
1e-10
1e-10
1e-10
0.673862
1e-10
1
1e-10
1
1e-10
1
0.631167
0.835399
0.630072
0.703778
0.660827
0.55213
0.470066
0.629554
0.612492
0.577494
0.608255
0.833941
0.656233
1e-10
1e-10
1e-10
1e-10
1e-10
1e-10
1e-10
1e-10
1e-10
1e-10
1e-10
1e-10
1e-10
1e-10
1e-10
1e-10
1e-10
1e-10
1e-10
1e-10
1e-10
1e-10
1e-10
1e-10
1e-10
1e-10
1e-10
1e-10
1e-10
1e-10
1e-10
0.85
1e-10
1
1e-10
1
1e-10
1
1e-10
0.842223
0.567936
0.715776
1e-10
0.749179
0.544189
0.461537
0.639093
0.592843
0.570444
0.846139
0.526765
1e-10
1e-10
1e-10
1e-10
1e-10
1e-10
1e-10
1e-10
1e-10
1e-10
1e-10
1e-10
1e-10
1e-10
1e-10
1e-10
1e-10
1e-10
1e-10
1e-10
1e-10
1e-10
1e-10
1e-10
1e-10
1e-10
1e-10
1e-10
1e-10
1e-10
0.798675
1
1e-10
0.963397
1e-10
1
0.372339
1
0.45846
1e-10
1e-10
1
1e-10
0.662611
0.552949
0.474365
0.563699
0.86384
1.34906e-05
0.770894
1e-10
1e-10
1e-10
1e-10
1e-10
1e-10
1e-10
1e-10
1e-10
1e-10
1e-10
1e-10
1e-10
1e-10
1e-10
1e-10
1e-10
1e-10
1e-10
1e-10
1e-10
1e-10
1e-10
1e-10
1e-10
1e-10
1e-10
1e-10
1e-10
1
1e-10
1e-10
0.466011
1e-10
0.842053
1e-10
1
0.363823
0.902716
1e-10
0.987554
1e-10
0.823306
1e-10
0.623413
0.370961
0.732301
1e-10
0.921827
1e-10
0.694081
1e-10
1e-10
1e-10
1e-10
1e-10
1e-10
1e-10
1e-10
1e-10
1e-10
1e-10
1e-10
1e-10
1e-10
1e-10
1e-10
1e-10
1e-10
1e-10
1e-10
1e-10
1e-10
1e-10
1e-10
1e-10
1e-10
1e-10
1
1e-10
1e-10
1e-10
1e-10
0.588569
1e-10
1e-10
1e-10
0.797401
0.764487
1
1e-10
0.805441
0.654265
0.86763
1e-10
0.966286
1e-10
0.717792
1e-10
0.728772
0.287024
1e-10
1e-10
1e-10
1e-10
1e-10
1e-10
1e-10
1e-10
1e-10
1e-10
1e-10
1e-10
1e-10
1e-10
1e-10
1e-10
1e-10
1e-10
1e-10
1e-10
1e-10
1e-10
1e-10
1e-10
1e-10
1e-10
1
1e-10
1e-10
1e-10
1e-10
1e-10
1e-10
1e-10
1e-10
1e-10
0.747268
1e-10
1
0.76431
0.673259
1e-10
0.666834
0.702692
1e-10
0.78227
1e-10
0.598027
1e-10
0.776076
1e-10
1e-10
1e-10
1e-10
1e-10
1e-10
1e-10
1e-10
1e-10
1e-10
1e-10
1e-10
1e-10
1e-10
0.74007
0.826741
0.669622
1e-10
1e-10
1e-10
1e-10
1e-10
1e-10
1e-10
1e-10
1
1e-10
1e-10
1e-10
1e-10
1e-10
1e-10
1e-10
1e-10
1e-10
1e-10
0.296213
1
1e-10
1
1e-10
0.956534
1e-10
0.727656
0.834129
1e-10
0.587543
1e-10
0.455004
1e-10
1
1e-10
1e-10
1e-10
1e-10
1e-10
1e-10
1e-10
1e-10
1e-10
1e-10
1e-10
1e-10
1
0.968807
1
1e-10
1e-10
1e-10
1e-10
1e-10
1e-10
1e-10
1e-10
1
1e-10
1e-10
1e-10
1e-10
1e-10
1e-10
1e-10
1e-10
1e-10
1e-10
1e-10
1
1e-10
1e-10
1e-10
1
1e-10
1
1e-10
0.738848
0.673309
1e-10
0.839294
0.217426
0.832693