# vtk DataFile Version 4.1
vtk output
ASCII
DATASET UNSTRUCTURED_GRID

POINTS	56171	float
0	0	0	
2.5	0	0	
5	0	0	
7.5	0	0	
10	0	0	
12.5	0	0	
15	0	0	
17.5	0	0	
20	0	0	
22.5	0	0	
25	0	0	
0	2.5	0	
2.5	2.5	0	
5	2.5	0	
7.5	2.5	0	
10	2.5	0	
12.5	2.5	0	
15	2.5	0	
17.5	2.5	0	
20	2.5	0	
22.5	2.5	0	
25	2.5	0	
0	5	0	
2.5	5	0	
5	5	0	
7.5	5	0	
10	5	0	
12.5	5	0	
15	5	0	
17.5	5	0	
20	5	0	
22.5	5	0	
25	5	0	
0	7.5	0	
2.5	7.5	0	
5	7.5	0	
7.5	7.5	0	
10	7.5	0	
12.5	7.5	0	
15	7.5	0	
17.5	7.5	0	
20	7.5	0	
22.5	7.5	0	
25	7.5	0	
0	10	0	
2.5	10	0	
5	10	0	
7.5	10	0	
10	10	0	
12.5	10	0	
15	10	0	
17.5	10	0	
20	10	0	
22.5	10	0	
25	10	0	
0	12.5	0	
2.5	12.5	0	
5	12.5	0	
7.5	12.5	0	
10	12.5	0	
12.5	12.5	0	
15	12.5	0	
17.5	12.5	0	
20	12.5	0	
22.5	12.5	0	
25	12.5	0	
0	15	0	
2.5	15	0	
5	15	0	
7.5	15	0	
10	15	0	
12.5	15	0	
15	15	0	
17.5	15	0	
20	15	0	
22.5	15	0	
25	15	0	
0	17.5	0	
2.5	17.5	0	
5	17.5	0	
7.5	17.5	0	
10	17.5	0	
12.5	17.5	0	
15	17.5	0	
17.5	17.5	0	
20	17.5	0	
22.5	17.5	0	
25	17.5	0	
0	20	0	
2.5	20	0	
5	20	0	
7.5	20	0	
10	20	0	
12.5	20	0	
15	20	0	
17.5	20	0	
20	20	0	
22.5	20	0	
25	20	0	
0	22.5	0	
2.5	22.5	0	
5	22.5	0	
7.5	22.5	0	
10	22.5	0	
12.5	22.5	0	
15	22.5	0	
17.5	22.5	0	
20	22.5	0	
22.5	22.5	0	
25	22.5	0	
0	25	0	
2.5	25	0	
5	25	0	
7.5	25	0	
10	25	0	
12.5	25	0	
15	25	0	
17.5	25	0	
20	25	0	
22.5	25	0	
25	25	0	
0	27.5	0	
2.5	27.5	0	
5	27.5	0	
7.5	27.5	0	
10	27.5	0	
12.5	27.5	0	
15	27.5	0	
17.5	27.5	0	
20	27.5	0	
22.5	27.5	0	
25	27.5	0	
0	30	0	
2.5	30	0	
5	30	0	
7.5	30	0	
10	30	0	
12.5	30	0	
15	30	0	
17.5	30	0	
20	30	0	
22.5	30	0	
25	30	0	
0	32.5	0	
2.5	32.5	0	
5	32.5	0	
7.5	32.5	0	
10	32.5	0	
12.5	32.5	0	
15	32.5	0	
17.5	32.5	0	
20	32.5	0	
22.5	32.5	0	
25	32.5	0	
0	35	0	
2.5	35	0	
5	35	0	
7.5	35	0	
10	35	0	
12.5	35	0	
15	35	0	
17.5	35	0	
20	35	0	
22.5	35	0	
25	35	0	
0	37.5	0	
2.5	37.5	0	
5	37.5	0	
7.5	37.5	0	
10	37.5	0	
12.5	37.5	0	
15	37.5	0	
17.5	37.5	0	
20	37.5	0	
22.5	37.5	0	
25	37.5	0	
0	40	0	
2.5	40	0	
5	40	0	
7.5	40	0	
10	40	0	
12.5	40	0	
15	40	0	
17.5	40	0	
20	40	0	
22.5	40	0	
25	40	0	
0	42.5	0	
2.5	42.5	0	
5	42.5	0	
7.5	42.5	0	
10	42.5	0	
12.5	42.5	0	
15	42.5	0	
17.5	42.5	0	
20	42.5	0	
22.5	42.5	0	
25	42.5	0	
0	45	0	
2.5	45	0	
5	45	0	
7.5	45	0	
10	45	0	
12.5	45	0	
15	45	0	
17.5	45	0	
20	45	0	
22.5	45	0	
25	45	0	
0	47.5	0	
2.5	47.5	0	
5	47.5	0	
7.5	47.5	0	
10	47.5	0	
12.5	47.5	0	
15	47.5	0	
17.5	47.5	0	
20	47.5	0	
22.5	47.5	0	
25	47.5	0	
0	50	0	
2.5	50	0	
5	50	0	
7.5	50	0	
10	50	0	
12.5	50	0	
15	50	0	
17.5	50	0	
20	50	0	
22.5	50	0	
25	50	0	
0	52.5	0	
2.5	52.5	0	
5	52.5	0	
7.5	52.5	0	
10	52.5	0	
12.5	52.5	0	
15	52.5	0	
17.5	52.5	0	
20	52.5	0	
22.5	52.5	0	
25	52.5	0	
0	55	0	
2.5	55	0	
5	55	0	
7.5	55	0	
10	55	0	
12.5	55	0	
15	55	0	
17.5	55	0	
20	55	0	
22.5	55	0	
25	55	0	
0	57.5	0	
2.5	57.5	0	
5	57.5	0	
7.5	57.5	0	
10	57.5	0	
12.5	57.5	0	
15	57.5	0	
17.5	57.5	0	
20	57.5	0	
22.5	57.5	0	
25	57.5	0	
0	60	0	
2.5	60	0	
5	60	0	
7.5	60	0	
10	60	0	
12.5	60	0	
15	60	0	
17.5	60	0	
20	60	0	
22.5	60	0	
25	60	0	
0	62.5	0	
2.5	62.5	0	
5	62.5	0	
7.5	62.5	0	
10	62.5	0	
12.5	62.5	0	
15	62.5	0	
17.5	62.5	0	
20	62.5	0	
22.5	62.5	0	
25	62.5	0	
0	0	2.5	
2.5	0	2.5	
5	0	2.5	
7.5	0	2.5	
10	0	2.5	
12.5	0	2.5	
15	0	2.5	
17.5	0	2.5	
20	0	2.5	
22.5	0	2.5	
25	0	2.5	
0	2.5	2.5	
2.5	2.5	2.5	
5	2.5	2.5	
7.5	2.5	2.5	
10	2.5	2.5	
12.5	2.5	2.5	
15	2.5	2.5	
17.5	2.5	2.5	
20	2.5	2.5	
22.5	2.5	2.5	
25	2.5	2.5	
0	5	2.5	
2.5	5	2.5	
5	5	2.5	
7.5	5	2.5	
10	5	2.5	
12.5	5	2.5	
15	5	2.5	
17.5	5	2.5	
20	5	2.5	
22.5	5	2.5	
25	5	2.5	
0	7.5	2.5	
2.5	7.5	2.5	
5	7.5	2.5	
7.5	7.5	2.5	
10	7.5	2.5	
12.5	7.5	2.5	
15	7.5	2.5	
17.5	7.5	2.5	
20	7.5	2.5	
22.5	7.5	2.5	
25	7.5	2.5	
0	10	2.5	
2.5	10	2.5	
5	10	2.5	
7.5	10	2.5	
10	10	2.5	
12.5	10	2.5	
15	10	2.5	
17.5	10	2.5	
20	10	2.5	
22.5	10	2.5	
25	10	2.5	
0	12.5	2.5	
2.5	12.5	2.5	
5	12.5	2.5	
7.5	12.5	2.5	
10	12.5	2.5	
12.5	12.5	2.5	
15	12.5	2.5	
17.5	12.5	2.5	
20	12.5	2.5	
22.5	12.5	2.5	
25	12.5	2.5	
0	15	2.5	
2.5	15	2.5	
5	15	2.5	
7.5	15	2.5	
10	15	2.5	
12.5	15	2.5	
15	15	2.5	
17.5	15	2.5	
20	15	2.5	
22.5	15	2.5	
25	15	2.5	
0	17.5	2.5	
2.5	17.5	2.5	
5	17.5	2.5	
7.5	17.5	2.5	
10	17.5	2.5	
12.5	17.5	2.5	
15	17.5	2.5	
17.5	17.5	2.5	
20	17.5	2.5	
22.5	17.5	2.5	
25	17.5	2.5	
0	20	2.5	
2.5	20	2.5	
5	20	2.5	
7.5	20	2.5	
10	20	2.5	
12.5	20	2.5	
15	20	2.5	
17.5	20	2.5	
20	20	2.5	
22.5	20	2.5	
25	20	2.5	
0	22.5	2.5	
2.5	22.5	2.5	
5	22.5	2.5	
7.5	22.5	2.5	
10	22.5	2.5	
12.5	22.5	2.5	
15	22.5	2.5	
17.5	22.5	2.5	
20	22.5	2.5	
22.5	22.5	2.5	
25	22.5	2.5	
0	25	2.5	
2.5	25	2.5	
5	25	2.5	
7.5	25	2.5	
10	25	2.5	
12.5	25	2.5	
15	25	2.5	
17.5	25	2.5	
20	25	2.5	
22.5	25	2.5	
25	25	2.5	
0	27.5	2.5	
2.5	27.5	2.5	
5	27.5	2.5	
7.5	27.5	2.5	
10	27.5	2.5	
12.5	27.5	2.5	
15	27.5	2.5	
17.5	27.5	2.5	
20	27.5	2.5	
22.5	27.5	2.5	
25	27.5	2.5	
0	30	2.5	
2.5	30	2.5	
5	30	2.5	
7.5	30	2.5	
10	30	2.5	
12.5	30	2.5	
15	30	2.5	
17.5	30	2.5	
20	30	2.5	
22.5	30	2.5	
25	30	2.5	
0	32.5	2.5	
2.5	32.5	2.5	
5	32.5	2.5	
7.5	32.5	2.5	
10	32.5	2.5	
12.5	32.5	2.5	
15	32.5	2.5	
17.5	32.5	2.5	
20	32.5	2.5	
22.5	32.5	2.5	
25	32.5	2.5	
0	35	2.5	
2.5	35	2.5	
5	35	2.5	
7.5	35	2.5	
10	35	2.5	
12.5	35	2.5	
15	35	2.5	
17.5	35	2.5	
20	35	2.5	
22.5	35	2.5	
25	35	2.5	
0	37.5	2.5	
2.5	37.5	2.5	
5	37.5	2.5	
7.5	37.5	2.5	
10	37.5	2.5	
12.5	37.5	2.5	
15	37.5	2.5	
17.5	37.5	2.5	
20	37.5	2.5	
22.5	37.5	2.5	
25	37.5	2.5	
0	40	2.5	
2.5	40	2.5	
5	40	2.5	
7.5	40	2.5	
10	40	2.5	
12.5	40	2.5	
15	40	2.5	
17.5	40	2.5	
20	40	2.5	
22.5	40	2.5	
25	40	2.5	
0	42.5	2.5	
2.5	42.5	2.5	
5	42.5	2.5	
7.5	42.5	2.5	
10	42.5	2.5	
12.5	42.5	2.5	
15	42.5	2.5	
17.5	42.5	2.5	
20	42.5	2.5	
22.5	42.5	2.5	
25	42.5	2.5	
0	45	2.5	
2.5	45	2.5	
5	45	2.5	
7.5	45	2.5	
10	45	2.5	
12.5	45	2.5	
15	45	2.5	
17.5	45	2.5	
20	45	2.5	
22.5	45	2.5	
25	45	2.5	
0	47.5	2.5	
2.5	47.5	2.5	
5	47.5	2.5	
7.5	47.5	2.5	
10	47.5	2.5	
12.5	47.5	2.5	
15	47.5	2.5	
17.5	47.5	2.5	
20	47.5	2.5	
22.5	47.5	2.5	
25	47.5	2.5	
0	50	2.5	
2.5	50	2.5	
5	50	2.5	
7.5	50	2.5	
10	50	2.5	
12.5	50	2.5	
15	50	2.5	
17.5	50	2.5	
20	50	2.5	
22.5	50	2.5	
25	50	2.5	
0	52.5	2.5	
2.5	52.5	2.5	
5	52.5	2.5	
7.5	52.5	2.5	
10	52.5	2.5	
12.5	52.5	2.5	
15	52.5	2.5	
17.5	52.5	2.5	
20	52.5	2.5	
22.5	52.5	2.5	
25	52.5	2.5	
0	55	2.5	
2.5	55	2.5	
5	55	2.5	
7.5	55	2.5	
10	55	2.5	
12.5	55	2.5	
15	55	2.5	
17.5	55	2.5	
20	55	2.5	
22.5	55	2.5	
25	55	2.5	
0	57.5	2.5	
2.5	57.5	2.5	
5	57.5	2.5	
7.5	57.5	2.5	
10	57.5	2.5	
12.5	57.5	2.5	
15	57.5	2.5	
17.5	57.5	2.5	
20	57.5	2.5	
22.5	57.5	2.5	
25	57.5	2.5	
0	60	2.5	
2.5	60	2.5	
5	60	2.5	
7.5	60	2.5	
10	60	2.5	
12.5	60	2.5	
15	60	2.5	
17.5	60	2.5	
20	60	2.5	
22.5	60	2.5	
25	60	2.5	
0	62.5	2.5	
2.5	62.5	2.5	
5	62.5	2.5	
7.5	62.5	2.5	
10	62.5	2.5	
12.5	62.5	2.5	
15	62.5	2.5	
17.5	62.5	2.5	
20	62.5	2.5	
22.5	62.5	2.5	
25	62.5	2.5	
0	0	5	
2.5	0	5	
5	0	5	
7.5	0	5	
10	0	5	
12.5	0	5	
15	0	5	
17.5	0	5	
20	0	5	
22.5	0	5	
25	0	5	
0	2.5	5	
2.5	2.5	5	
5	2.5	5	
7.5	2.5	5	
10	2.5	5	
12.5	2.5	5	
15	2.5	5	
17.5	2.5	5	
20	2.5	5	
22.5	2.5	5	
25	2.5	5	
0	5	5	
2.5	5	5	
5	5	5	
7.5	5	5	
10	5	5	
12.5	5	5	
15	5	5	
17.5	5	5	
20	5	5	
22.5	5	5	
25	5	5	
0	7.5	5	
2.5	7.5	5	
5	7.5	5	
7.5	7.5	5	
10	7.5	5	
12.5	7.5	5	
15	7.5	5	
17.5	7.5	5	
20	7.5	5	
22.5	7.5	5	
25	7.5	5	
0	10	5	
2.5	10	5	
5	10	5	
7.5	10	5	
10	10	5	
12.5	10	5	
15	10	5	
17.5	10	5	
20	10	5	
22.5	10	5	
25	10	5	
0	12.5	5	
2.5	12.5	5	
5	12.5	5	
7.5	12.5	5	
10	12.5	5	
12.5	12.5	5	
15	12.5	5	
17.5	12.5	5	
20	12.5	5	
22.5	12.5	5	
25	12.5	5	
0	15	5	
2.5	15	5	
5	15	5	
7.5	15	5	
10	15	5	
12.5	15	5	
15	15	5	
17.5	15	5	
20	15	5	
22.5	15	5	
25	15	5	
0	17.5	5	
2.5	17.5	5	
5	17.5	5	
7.5	17.5	5	
10	17.5	5	
12.5	17.5	5	
15	17.5	5	
17.5	17.5	5	
20	17.5	5	
22.5	17.5	5	
25	17.5	5	
0	20	5	
2.5	20	5	
5	20	5	
7.5	20	5	
10	20	5	
12.5	20	5	
15	20	5	
17.5	20	5	
20	20	5	
22.5	20	5	
25	20	5	
0	22.5	5	
2.5	22.5	5	
5	22.5	5	
7.5	22.5	5	
10	22.5	5	
12.5	22.5	5	
15	22.5	5	
17.5	22.5	5	
20	22.5	5	
22.5	22.5	5	
25	22.5	5	
0	25	5	
2.5	25	5	
5	25	5	
7.5	25	5	
10	25	5	
12.5	25	5	
15	25	5	
17.5	25	5	
20	25	5	
22.5	25	5	
25	25	5	
0	27.5	5	
2.5	27.5	5	
5	27.5	5	
7.5	27.5	5	
10	27.5	5	
12.5	27.5	5	
15	27.5	5	
17.5	27.5	5	
20	27.5	5	
22.5	27.5	5	
25	27.5	5	
0	30	5	
2.5	30	5	
5	30	5	
7.5	30	5	
10	30	5	
12.5	30	5	
15	30	5	
17.5	30	5	
20	30	5	
22.5	30	5	
25	30	5	
0	32.5	5	
2.5	32.5	5	
5	32.5	5	
7.5	32.5	5	
10	32.5	5	
12.5	32.5	5	
15	32.5	5	
17.5	32.5	5	
20	32.5	5	
22.5	32.5	5	
25	32.5	5	
0	35	5	
2.5	35	5	
5	35	5	
7.5	35	5	
10	35	5	
12.5	35	5	
15	35	5	
17.5	35	5	
20	35	5	
22.5	35	5	
25	35	5	
0	37.5	5	
2.5	37.5	5	
5	37.5	5	
7.5	37.5	5	
10	37.5	5	
12.5	37.5	5	
15	37.5	5	
17.5	37.5	5	
20	37.5	5	
22.5	37.5	5	
25	37.5	5	
0	40	5	
2.5	40	5	
5	40	5	
7.5	40	5	
10	40	5	
12.5	40	5	
15	40	5	
17.5	40	5	
20	40	5	
22.5	40	5	
25	40	5	
0	42.5	5	
2.5	42.5	5	
5	42.5	5	
7.5	42.5	5	
10	42.5	5	
12.5	42.5	5	
15	42.5	5	
17.5	42.5	5	
20	42.5	5	
22.5	42.5	5	
25	42.5	5	
0	45	5	
2.5	45	5	
5	45	5	
7.5	45	5	
10	45	5	
12.5	45	5	
15	45	5	
17.5	45	5	
20	45	5	
22.5	45	5	
25	45	5	
0	47.5	5	
2.5	47.5	5	
5	47.5	5	
7.5	47.5	5	
10	47.5	5	
12.5	47.5	5	
15	47.5	5	
17.5	47.5	5	
20	47.5	5	
22.5	47.5	5	
25	47.5	5	
0	50	5	
2.5	50	5	
5	50	5	
7.5	50	5	
10	50	5	
12.5	50	5	
15	50	5	
17.5	50	5	
20	50	5	
22.5	50	5	
25	50	5	
0	52.5	5	
2.5	52.5	5	
5	52.5	5	
7.5	52.5	5	
10	52.5	5	
12.5	52.5	5	
15	52.5	5	
17.5	52.5	5	
20	52.5	5	
22.5	52.5	5	
25	52.5	5	
0	55	5	
2.5	55	5	
5	55	5	
7.5	55	5	
10	55	5	
12.5	55	5	
15	55	5	
17.5	55	5	
20	55	5	
22.5	55	5	
25	55	5	
0	57.5	5	
2.5	57.5	5	
5	57.5	5	
7.5	57.5	5	
10	57.5	5	
12.5	57.5	5	
15	57.5	5	
17.5	57.5	5	
20	57.5	5	
22.5	57.5	5	
25	57.5	5	
0	60	5	
2.5	60	5	
5	60	5	
7.5	60	5	
10	60	5	
12.5	60	5	
15	60	5	
17.5	60	5	
20	60	5	
22.5	60	5	
25	60	5	
0	62.5	5	
2.5	62.5	5	
5	62.5	5	
7.5	62.5	5	
10	62.5	5	
12.5	62.5	5	
15	62.5	5	
17.5	62.5	5	
20	62.5	5	
22.5	62.5	5	
25	62.5	5	
0	0	7.5	
2.5	0	7.5	
5	0	7.5	
7.5	0	7.5	
10	0	7.5	
12.5	0	7.5	
15	0	7.5	
17.5	0	7.5	
20	0	7.5	
22.5	0	7.5	
25	0	7.5	
0	2.5	7.5	
2.5	2.5	7.5	
5	2.5	7.5	
7.5	2.5	7.5	
10	2.5	7.5	
12.5	2.5	7.5	
15	2.5	7.5	
17.5	2.5	7.5	
20	2.5	7.5	
22.5	2.5	7.5	
25	2.5	7.5	
0	5	7.5	
2.5	5	7.5	
5	5	7.5	
7.5	5	7.5	
10	5	7.5	
12.5	5	7.5	
15	5	7.5	
17.5	5	7.5	
20	5	7.5	
22.5	5	7.5	
25	5	7.5	
0	7.5	7.5	
2.5	7.5	7.5	
5	7.5	7.5	
7.5	7.5	7.5	
[...]
CELL_DATA	12500
SCALARS Rho0 float
LOOKUP_TABLE default
1
1
1
1
1
1
1e-10
1e-10
1e-10
1e-10
1e-10
1e-10
1e-10
1e-10
1e-10
1e-10
1e-10
1e-10
1e-10
1e-10
1e-10
1e-10
1e-10
1e-10
1e-10
1e-10
1e-10
1e-10
1e-10
1e-10
1e-10
1e-10
1e-10
1e-10
1e-10
1e-10
1e-10
1e-10
1e-10
1e-10
1e-10
1e-10
1e-10
1e-10
1e-10
1e-10
1e-10
1e-10
1e-10
1e-10
1e-10
1e-10
1
1
1
1
1
1
1
0.941944
1
1e-10
1e-10
1e-10
1e-10
1e-10
1e-10
1e-10
1e-10
1e-10
1e-10
1e-10
1e-10
1e-10
1e-10
1e-10
1e-10
1e-10
1e-10
1e-10
1e-10
1e-10
1e-10
1e-10
1e-10
1e-10
1e-10
1e-10
1e-10
1e-10
1e-10
1e-10
1e-10
1e-10
1e-10
1e-10
1e-10
1e-10
1e-10
1e-10
1e-10
1e-10
1e-10
1e-10
1
1
1
1
1
1
1
1
1
1
0.989054
1
1e-10
1e-10
1e-10
1e-10
1e-10
1e-10
1e-10
1e-10
1e-10
1e-10
1e-10
1e-10
1e-10
1e-10
1e-10
1e-10
1e-10
1e-10
1e-10
1e-10
1e-10
1e-10
1e-10
1e-10
1e-10
1e-10
1e-10
1e-10
1e-10
1e-10
1e-10
1e-10
1e-10
1e-10
1e-10
1e-10
1e-10
1e-10
1e-10
1e-10
1e-10
1
1
0.488131
1
1
1
1
1
1
1
1
1
0.685774
1
0.80946
1
0.904303
1
0.791455
1
0.454714
1
0.384612
0.806478
0.59522
1e-10
1e-10
1e-10
1e-10
1e-10
1e-10
1e-10
1e-10
1e-10
1e-10
1e-10
1e-10
1e-10
1e-10
1e-10
1e-10
1e-10
1e-10
1e-10
1e-10
1e-10
1e-10
1e-10
1e-10
1e-10
1e-10
1e-10
1
0.233496
0.279293
0.966889
0.803031
1
0.943746
1
1
1
1
1
0.0985039
0.418517
0.199809
0.00316204
0.108915
0.0246796
1e-10
1e-10
1e-10
1e-10
1e-10
1e-10
1e-10
1e-10
1e-10
1e-10
1e-10
1e-10
1e-10
1e-10
1e-10
1e-10
1e-10
1e-10
1e-10
1e-10
1e-10
1e-10
1e-10
1e-10
1e-10
1e-10
1e-10
1e-10
1e-10
1e-10
1e-10
1e-10
1e-10
1
1e-10
0.317424
1e-10
1e-10
1e-10
0.743653
0.80821
0.883878
1
1
1
1
1
0.000116544
1e-10
1e-10
1e-10
1e-10
1e-10
1e-10
1e-10
1e-10
1e-10
1e-10
1e-10
1e-10
1e-10
1e-10
1e-10
1e-10
1e-10
1e-10
1e-10
1e-10
1e-10
1e-10
1e-10
1e-10
1e-10
1e-10
1e-10
1e-10
1e-10
1e-10
1e-10
1e-10
1e-10
1e-10
1e-10
1e-10
1
0.235852
1e-10
1e-10
1e-10
1e-10
1e-10
1e-10
1e-10
1e-10
1
1
1
1
1
1
1e-10
1e-10
1e-10
1e-10
1e-10
1e-10
1e-10
1e-10
1e-10
1e-10
1e-10
1e-10
1e-10
1e-10
1e-10
1e-10
1e-10
1e-10
1e-10
1e-10
1e-10
1e-10
1e-10
1e-10
1e-10
1e-10
1e-10
1e-10
1e-10
1e-10
1e-10
1e-10
1e-10
1e-10
1e-10
1
0.554298
1e-10
1e-10
1e-10
1e-10
1e-10
1e-10
1e-10
1e-10
1e-10
0.869049
1
1
1
1
1
1
0.0203523
1e-10
1e-10
1e-10
1e-10
1e-10
1e-10
1e-10
1e-10
1e-10
1e-10
1e-10
1e-10
1e-10
1e-10
1e-10
1e-10
1e-10
1e-10
1e-10
1e-10
1e-10
1e-10
1e-10
1e-10
1e-10
1e-10
1e-10
1e-10
1e-10
1e-10
1e-10
0.000292817
0.974035
0.710478
1e-10
1e-10
1e-10
1e-10
1e-10
1e-10
1e-10
1e-10
1e-10
1e-10
1e-10
0.770739
1
1
1
1
1
0.963783
0.866153
0.640946
0.264115
0.743419
1e-10
1e-10
1e-10
1e-10
1e-10
1e-10
1e-10
1e-10
1e-10
1e-10
1e-10
1e-10
1e-10
1e-10
1e-10
1e-10
1e-10
1e-10
1e-10
1e-10
1e-10
1e-10
1e-10
1e-10
1e-10
1e-10
0.0299953
0.95
0.800541
1e-10
1e-10
1e-10
1e-10
1e-10
1e-10
1e-10
1e-10
1e-10
1e-10
1e-10
1e-10
0.249586
0.578402
1
1
0.681112
1
1
1
0.365106
0.935265
1e-10
1e-10
1e-10
1e-10
1e-10
1e-10
1e-10
1e-10
1e-10
1e-10
1e-10
1e-10
1e-10
1e-10
1e-10
1e-10
1e-10
1e-10
1e-10
1e-10
1e-10
1e-10
1e-10
1e-10
1e-10
1e-10
0.110459
0.95
0.931209
1e-10
1e-10
1e-10
1e-10
1e-10
1e-10
1e-10
1e-10
1e-10
1e-10
1e-10
1e-10
1e-10
0.160475
0.756527
1
0.289833
1
1
1
0.00450782
1
9.85679e-10
1e-10
1e-10
1e-10
1e-10
1e-10
1e-10
1e-10
1e-10
1e-10
1e-10
1e-10
1e-10
1e-10
1e-10
1e-10
1e-10
1e-10
1e-10
1e-10
1e-10
1e-10
1e-10
1e-10
1e-10
1e-10
0.122401
0.91209
1
1e-10
1e-10
1e-10
1e-10
1e-10
1e-10
1e-10
1e-10
1e-10
1e-10
1e-10
1e-10
1e-10
3.41335e-08
6.32676e-09
1
0.254212
1
1
1
1
0.121709
1e-10
1e-10
1e-10
1e-10
1e-10
1e-10
1e-10
1e-10
1e-10
1e-10
1e-10
1e-10
1e-10
1e-10
1e-10
1e-10
1e-10
1e-10
1e-10
1e-10
1e-10
1e-10
1e-10
1e-10
1e-10
1e-10
0.259082
0.934442
1
1e-10
1e-10
1e-10
1e-10
1e-10
1e-10
1e-10
1e-10
1e-10
1e-10
1e-10
1e-10
1e-10
1
0.327874
1
0.0472498
1
1
0.819704
0.89041
1e-10
1e-10
1e-10
1e-10
1e-10
1e-10
1e-10
1e-10
1e-10
1e-10
1e-10
1e-10
1e-10
1e-10
1e-10
1e-10
1e-10
1e-10
1e-10
1e-10
1e-10
1e-10
1e-10
1e-10
1e-10
1e-10
0.622793
0.489268
0.718501
1
1e-10
1e-10
1e-10
1e-10
1e-10
1e-10
1e-10
1e-10
1e-10
1e-10
1e-10
1
0.854709
1
0.634933
1
0.675487
0.948313
1
0.226496
1e-10
1e-10
1e-10
1e-10
1e-10
1e-10
1e-10
1e-10
1e-10
1e-10
1e-10
1e-10
1e-10
1e-10
1e-10
1e-10
1e-10
1e-10
1e-10
1e-10
1e-10
1e-10
1e-10
1e-10
1e-10
0.618253
1e-10
1e-10
0.684782
0.756996
0.940166
1e-10
1e-10
1e-10
1e-10
1e-10
1e-10
1e-10
1e-10
1
1
1
1
0.760386
1
0.742472
0.918473
4.14465e-05
7.69636e-08
0.986278
1e-10
1e-10
1e-10
1e-10
1e-10
1e-10
1e-10
1e-10
1e-10
1e-10
1e-10
1e-10
1e-10
1e-10
1e-10
1e-10
1e-10
1e-10
1e-10
1e-10
1e-10
1e-10
1e-10
1e-10
0.644068
1e-10
1e-10
1e-10
0.000230298
0.765024
0.920521
0.828902
1e-10
1e-10
1e-10
1e-10
1e-10
1
1
1
1
1
0.743232
0.888447
0.100047
0.000184119
0.600454
1e-10
1e-10
1e-10
1e-10
1e-10
1e-10
1e-10
1e-10
1e-10
1e-10
1e-10
1e-10
1e-10
1e-10
1e-10
1e-10
1e-10
1e-10
1e-10
1e-10
1e-10
1e-10
1e-10
1e-10
1e-10
1e-10
0.626057
1e-10
1e-10
1e-10
1e-10
1e-10
0.0556954
0.665751
1
1e-10
1e-10
1e-10
1e-10
1
1
1
1
0.987584
0.152813
1e-10
1e-10
1e-10
1e-10
1e-10
1e-10
1e-10
1e-10
1e-10
1e-10
1e-10
1e-10
1e-10
1e-10
1e-10
1e-10
1e-10
1e-10
1e-10
1e-10
1e-10
1e-10
1e-10
1e-10
1e-10
1e-10
1e-10
1e-10
1e-10
1e-10
0.692622
1e-10
1e-10
1e-10
1e-10
1e-10
1e-10
1e-10
0.67801
0.107568
1
0.79339
1
1
1
1
0.970183
1e-10
1e-10
1e-10
1e-10
1e-10
1e-10
1e-10
1e-10
1e-10
1e-10
1e-10
1e-10
1e-10
1e-10
1e-10
1e-10
1e-10
1e-10
1e-10
1e-10
1e-10
1e-10
1e-10
1e-10
1e-10
1e-10
1e-10
1e-10
1e-10
1e-10
1e-10
1e-10
0.577627
1e-10
1e-10
1e-10
1e-10
1e-10
1e-10
1e-10
1
0.612518
1
1
1
1
1
1e-10
1e-10
1e-10
1e-10
1e-10
1e-10
1e-10
1e-10
1e-10
1e-10
1e-10
1e-10
1e-10
1e-10
1e-10
1e-10
1e-10
1e-10
1e-10
1e-10
1e-10
1e-10
1e-10
1e-10
1e-10
1e-10
1e-10
1e-10
1e-10
1e-10
1e-10
1e-10
1e-10
1e-10
0.529976
1e-10
1e-10
1e-10
1e-10
1e-10
1
0.992607
1
1
1
1
1
1
1e-10
1e-10
1e-10
1e-10
1e-10
1e-10
1e-10
1e-10
1e-10
1e-10
1e-10
1e-10
1e-10
1e-10
1e-10
1e-10
1e-10
1e-10
1e-10
1e-10
1e-10
1e-10
1e-10
1e-10
1e-10
1e-10
1e-10
1e-10
1e-10
1e-10
1e-10
1e-10
1e-10
1e-10
1e-10
0.484746
1e-10
1e-10
1
0.89809
1
1
1
1
1
1
0.888932
1
1e-10
0.561595
1e-10
1e-10
1e-10
1e-10
1e-10
1e-10
1e-10
1e-10
1e-10
1e-10
1e-10
1e-10
1e-10
1e-10
1e-10
1e-10
1e-10
1e-10
1e-10
1e-10
1e-10
1e-10
1e-10
1e-10
1e-10
1e-10
1e-10
1e-10
1e-10
1e-10
1e-10
1e-10
1e-10
1e-10
1
0.975313
1
1
1
1
1
1
0.527639
1
1e-10
1e-10
1e-10
1e-10
1e-10
0.532433
0.475591
1e-10
1e-10
1e-10
1e-10
1e-10
1e-10
1e-10
1e-10
1e-10
1e-10
1e-10
1e-10
1e-10
1e-10
1e-10
1e-10
1e-10
1e-10
1e-10
1e-10
1e-10
1e-10
1e-10
1e-10
1e-10
1e-10
1e-10
1e-10
1e-10
1e-10
1
1
1
1
1
1
1
0.81328
1
4.08846e-09
1e-10
1e-10
1e-10
1e-10
1e-10
1e-10
1e-10
1.94746e-09
0.531003
0.15804
1e-10
1e-10
1e-10
1e-10
1e-10
1e-10
1e-10
1e-10
1e-10
1e-10
1e-10
1e-10
1e-10
1e-10
1e-10
1e-10
1e-10
1e-10
1e-10
1e-10
1e-10
1e-10
1e-10
1e-10
1e-10
1e-10
1e-10
1
1
1
1
1
1
1
0.979931
0.907077
1e-10
1e-10
1e-10
1e-10
1e-10
1e-10
1e-10
1e-10
1e-10
1e-10
1e-10
1e-10
0.196397
0.751619
1e-10
1e-10
0.763506
0.560444
1e-10
1e-10
1e-10
1e-10
1e-10
1e-10
1e-10
1e-10
1e-10
1e-10
1e-10
1e-10
1e-10
1e-10
1e-10
1e-10
1e-10
1e-10
1e-10
1e-10
1e-10
1
1
1
1
1
1
0.939138
1
0.531578
1
0.641866
1
0.829027
1
0.827439
1
0.821896
1
0.818695
1
0.818295
1
0.825207
1
0.65365
1
0.771848
0.601697
1e-10
1e-10
1e-10
1e-10
1e-10
1e-10
1e-10
1e-10
1e-10
1e-10
1e-10
1e-10
1e-10
1e-10
1e-10
1e-10
1e-10
1e-10
1e-10
1e-10
1e-10
1e-10
1
1
0.468507
1
1e-10
0.183405
1e-10
1e-10
1e-10
1e-10
1e-10
1e-10
1e-10
1e-10
1e-10
1e-10
1e-10
1e-10
1e-10
1e-10
1e-10
1e-10
1e-10
1e-10
1e-10
1e-10
1e-10
1e-10
1e-10
1e-10
1e-10
1e-10
1e-10
1e-10
1e-10
1e-10
1e-10
1e-10
1e-10
1e-10
1e-10
1e-10
1e-10
1e-10
1e-10
1e-10
1e-10
1e-10
1e-10
1e-10
1e-10
1e-10
1
0.38813
1
1
1
1e-10
0.016859
1e-10
1e-10
1e-10
1e-10
1e-10
1e-10
1e-10
1e-10
1e-10
1e-10
1e-10
1e-10
1e-10
1e-10
1e-10
1e-10
1e-10
1e-10
1e-10
1e-10
1e-10
1e-10
1e-10
1e-10
1e-10
1e-10
1e-10
1e-10
1e-10
1e-10
1e-10
1e-10
1e-10
1e-10
1e-10
1e-10
1e-10
1e-10
1e-10
1e-10
1e-10
1e-10
1e-10
1e-10
1e-10
1e-10
1e-10
1e-10
1
1e-10
0.055646
0.0049759
1e-10
1e-10
1e-10
1e-10
1e-10
1e-10
1e-10
1e-10
1e-10
1e-10
1e-10
1e-10
1e-10
1e-10
1e-10
1e-10
1e-10
1e-10
1e-10
1e-10
1e-10
1e-10
1e-10
1e-10
0.132477
1e-10
1e-10
1e-10
1e-10
1e-10
1e-10
1e-10
1e-10
1e-10
1e-10
1e-10
1e-10
1e-10
1e-10
1e-10
1e-10
1e-10
1e-10
1e-10
1e-10
1e-10
1e-10
1
1e-10
1e-10
0.0160316
4.29519e-07
6.89604e-07
1e-10
1e-10
1e-10
1e-10
1e-10
1e-10
1e-10
1e-10
1e-10
0.239064
1e-10
0.800531
0.355476
0.961503
0.418164
1
0.937807
0.882555
1
0.508496
1
0.380117
0.944324
1e-10
1e-10
1e-10
1e-10
1e-10
1e-10
1e-10
1e-10
1e-10
1e-10
1e-10
1e-10
1e-10
1e-10
1e-10
1e-10
1e-10
1e-10
1e-10
1e-10
1e-10
1e-10
1
1e-10
1e-10
1e-10
1e-10
1e-10
1e-10
1e-10
2.37643e-05
1e-10
1.08951e-08
1e-10
1e-10
1e-10
1e-10
1e-10
1e-10
1e-10
1e-10
1e-10
1e-10
1e-10
1e-10
1e-10
1e-10
1e-10
0.222485
0.241393
0.883046
1e-10
1e-10
1e-10
1e-10
1e-10
1e-10
1e-10
1e-10
1e-10
1e-10
1e-10
1e-10
1e-10
1e-10
1e-10
1e-10
1e-10
1e-10
1e-10
1e-10
1e-10
1e-10
0.961133
1e-10
1e-10
1e-10
1e-10
1e-10
1e-10
1e-10
1e-10
1e-10
1e-10
1e-10
1e-10
1e-10
1e-10
1e-10
1e-10
1e-10
1e-10
1e-10
1e-10
1e-10
1e-10
1e-10
1e-10
1e-10
0.598552
0.129188
0.141772
0.633693
1e-10
1e-10
1e-10
1e-10
1e-10
1e-10
1e-10
1e-10
1e-10
1e-10
1e-10
1e-10
1e-10
1e-10
1e-10
1e-10
1e-10
1e-10
1e-10
1e-10
1e-10
0.877174
1e-10
1e-10
1e-10
1e-10
1e-10
1e-10
1e-10
1e-10
1e-10
1e-10
1e-10
1e-10
1e-10
1e-10
1e-10
1e-10
1e-10
1e-10
1e-10
1e-10
1e-10
1e-10
1e-10
1e-10
0.609793
0.225531
0.60967
1e-10
0.567334
1e-10
1e-10
1e-10
1e-10
1e-10
1e-10
1e-10
1e-10
1e-10
1e-10
1e-10
1e-10
1e-10
1e-10
1e-10
1e-10
1e-10
1e-10
1e-10
1e-10
1e-10
0.822774
1e-10
1e-10
1e-10
1e-10
1e-10
1e-10
1e-10
1e-10
1e-10
1e-10
1e-10
1e-10
1e-10
1e-10
1e-10
1e-10
1e-10
1e-10
1e-10
1e-10
1e-10
1e-10
1e-10
0.677139
0.0177443
0.699261
0.345243
0.663796
1e-10
1e-10
1e-10
1e-10
1e-10
1e-10
1e-10
1e-10
1e-10
1e-10
1e-10
1e-10
1e-10
1e-10
1e-10
1e-10
1e-10
1e-10
1e-10
1e-10
1e-10
1e-10
0.774746
1e-10
1e-10
1e-10
1e-10
1e-10
1e-10
1e-10
1e-10
1e-10
1e-10
1e-10
1e-10
1e-10
1e-10
1e-10
1e-10
1e-10
1e-10
1e-10
1e-10
1e-10
1e-10
1e-10
0.725822
1.12083e-08
0.263184
0.89637
1e-10
1e-10
1e-10
1e-10
1e-10
1e-10
1e-10
1e-10
1e-10
1e-10
1e-10
1e-10
1e-10
1e-10
1e-10
1e-10
1e-10
1e-10
1e-10
1e-10
1e-10
1e-10
1e-10
0.702315
1e-10
1e-10
1e-10
1e-10
1e-10
1e-10
1e-10
1e-10
1e-10
1e-10
1e-10
1e-10
1e-10
1e-10
1e-10
1e-10
1e-10
1e-10
1e-10
1e-10
1e-10
1e-10
1e-10
0.000845104
1
1e-10
1e-10
1e-10
1e-10
1e-10
1e-10
1e-10
1e-10
1e-10
1e-10
1e-10
1e-10
1e-10
1e-10
1e-10
1e-10
1e-10
1e-10
1e-10
1e-10
1e-10
1e-10
1e-10
1e-10
1e-10
0.617379
1e-10
1e-10
1e-10
1e-10
1e-10
1e-10
1e-10
1e-10
1e-10
1e-10
1e-10
1e-10
1e-10
1e-10
1e-10
1e-10
1e-10
1e-10
1e-10
1e-10
1e-10
1e-10
1e-10
0.906126
2.7893e-09
1e-10
1e-10
1e-10
1e-10
1e-10
1e-10
1e-10
1e-10
1e-10
1e-10
1e-10
1e-10
1e-10
1e-10
1e-10
1e-10
1e-10
1e-10
1e-10
1e-10
1e-10
1e-10
1e-10
1e-10
1e-10
0.510092
1e-10
1e-10
1e-10
1e-10
1e-10
1e-10
1e-10
1e-10
1e-10
1e-10
1e-10
1e-10
1e-10
1e-10
1e-10
1e-10
1e-10
1e-10
1e-10
1e-10
1e-10
1e-10
0.870914
1e-10
1e-10
1e-10
1e-10
1e-10
1e-10
1e-10
1e-10
1e-10
1e-10
1e-10
1e-10
1e-10
1e-10
1e-10
1e-10
1e-10
1e-10
1e-10
1e-10
1e-10
1e-10
1e-10
1e-10
1e-10
1e-10
1e-10
1e-10
1e-10
1e-10
1e-10
1e-10
1e-10
1e-10
1e-10
1e-10
1e-10
1e-10
1e-10
1e-10
1e-10
1e-10
1e-10
1e-10
1e-10
1e-10
1e-10
1e-10
0.876312
1e-10
1e-10
1e-10
1e-10
1e-10
1e-10
1e-10
1e-10
1e-10
1e-10
1e-10
1e-10
1e-10
1e-10
1e-10
1e-10
1e-10
1e-10
1e-10
1e-10
1e-10
1e-10
1e-10
1e-10
1e-10
1e-10
1e-10
1e-10
1e-10
1e-10
1e-10
1e-10
1e-10
1e-10
1e-10
1e-10
1e-10
1e-10
1e-10
1e-10
1e-10
1e-10
1e-10
1e-10
1e-10
1e-10
1e-10
1e-10
1e-10
1e-10
0.807074
1e-10
1e-10
1e-10
1e-10
1e-10
1e-10
1e-10
1e-10
1e-10
1e-10
1e-10
1e-10
1e-10
1e-10
1e-10
1e-10
1e-10
1e-10
1e-10
1e-10
1e-10
1e-10
1e-10
1e-10
1e-10
1e-10
1e-10
1e-10
1e-10
1e-10
1e-10
1e-10
1e-10
1e-10
1e-10
1e-10
1e-10
1e-10
1e-10
1e-10
1e-10
1e-10
1e-10
1e-10
1e-10
1e-10
1e-10
1e-10
1e-10
0.40788
0.000181711
1e-10
1e-10
1e-10
1e-10
1e-10
1e-10
1e-10
1e-10
1e-10
1e-10
1e-10
1e-10
1e-10
1e-10
1e-10
1e-10
1e-10
1e-10
1e-10
1e-10
1e-10
1e-10
1e-10
1e-10
1e-10
1e-10
1e-10
1e-10
1e-10
1e-10
1e-10
1e-10
1e-10
1e-10
1e-10
1e-10
1e-10
1e-10
1e-10
1e-10
1e-10
1e-10
1e-10
1e-10
1e-10
1e-10
1e-10
1e-10
0.972618
1.71758e-05
1e-10
1e-10
1e-10
1e-10
1e-10
1e-10
1e-10
1e-10
1e-10
1e-10
1e-10
1e-10
1e-10
1e-10
1e-10
1e-10
1e-10
1e-10
1e-10
1e-10
1e-10
1e-10
1e-10
1e-10
1e-10
1e-10
1e-10
1e-10
1e-10
1e-10
1e-10
1e-10
1e-10
1e-10
1e-10
1e-10
1e-10
1e-10
1e-10
1e-10
1e-10
1e-10
1e-10
1e-10
1e-10
0.62776
1e-10
1e-10
0.46989
0.713656
1e-10
1e-10
1e-10
1e-10
1e-10
1e-10
1e-10
1e-10
1e-10
1e-10
1e-10
1e-10
1e-10
1e-10
1e-10
1e-10
1e-10
1e-10
1e-10
1e-10
1e-10
1e-10
1e-10
1e-10
1e-10
1e-10
1e-10
1e-10
1e-10
1e-10
1e-10
1e-10
1e-10
1e-10
1e-10
1e-10
1e-10
1e-10
1e-10
1e-10
1e-10
1e-10
1e-10
1e-10
1e-10
0.523645
1e-10
1e-10
0.77605
0.697883
1e-10
1e-10
1e-10
1e-10
1e-10
1e-10
1e-10
1e-10
1e-10
1e-10
1e-10
1e-10
1e-10
1e-10
1e-10
1e-10
1e-10
1e-10
1e-10
1e-10
0.522331
1e-10
1e-10
1e-10
1e-10
1e-10
1e-10
1e-10
1e-10
1e-10
1e-10
1e-10
1e-10
1e-10
1e-10
1e-10
1e-10
1e-10
1e-10
1e-10
1e-10
1e-10
1e-10
1e-10
1e-10
0.670219
1e-10
1e-10
1e-10
0.000671704
1e-10
1e-10
1e-10
1e-10
1e-10
1e-10
1e-10
1e-10
1e-10
1e-10
1e-10
1e-10
1e-10
1e-10
1e-10
1e-10
1e-10
1e-10
1e-10
0.465588
1e-10
1e-10
1e-10
1e-10
1e-10
1e-10
1e-10
1e-10
1e-10
1e-10
1e-10
1e-10
1e-10
1e-10
1e-10
1e-10
1e-10
1e-10
1e-10
1e-10
1e-10
1e-10
1e-10
1e-10
1e-10
1e-10
1e-10
1e-10
1e-10
1e-10
1e-10
1e-10
1e-10
1e-10
1e-10
1e-10
1e-10
1e-10
1e-10
1e-10
1e-10
1e-10
1e-10
1e-10
1e-10
1e-10
1e-10
1e-10
0.548207
1e-10
1e-10
1e-10
1e-10
1e-10
1e-10
1e-10
1e-10
1e-10
1e-10
1e-10
1e-10
1e-10
1e-10
1e-10
1e-10
1e-10
1e-10
1e-10
1e-10
1e-10
1e-10
1e-10
1e-10
1e-10
1e-10
1e-10
1e-10
1e-10
1e-10
1e-10
1e-10
1e-10
1e-10
1e-10
1e-10
1e-10
1e-10
1e-10
1e-10
1e-10
1e-10
1e-10
1e-10
1e-10
1e-10
1e-10
1e-10
0.672486
1e-10
1e-10
2.85317e-09
7.7229e-10
1e-10
1e-10
1e-10
1e-10
1e-10
1e-10
1e-10
1e-10
1e-10
1e-10
1e-10
1e-10
1e-10
1e-10
1e-10
1e-10
1e-10
1e-10
1e-10
1e-10
1e-10
1e-10
1e-10
1e-10
1e-10
1e-10
1e-10
1e-10
1e-10
1e-10
1e-10
1e-10
1e-10
1e-10
1e-10
1e-10
1e-10
1e-10
1e-10
1e-10
1e-10
1e-10
1e-10
1e-10
0.875728
1e-10
0.00143865
9.63128e-07
1e-10
1e-10
1e-10
1e-10
1e-10
1e-10
1e-10
1e-10
1e-10
1e-10
1e-10
1e-10
1e-10
1e-10
1e-10
1e-10
1e-10
1e-10
1e-10
1e-10
1e-10
1e-10
1e-10
1e-10
1e-10
1e-10
1e-10
1e-10
1e-10
1e-10
1e-10
1e-10
1e-10
1e-10
1e-10
1e-10
1e-10
1e-10
1e-10
1e-10
1e-10
1e-10
1e-10
1
0.683347
0.845562
1e-10
0.0296925
1e-10
1e-10
1e-10
1e-10
1e-10
1e-10
1e-10
1e-10
1e-10
1e-10
1e-10
1e-10
1e-10
1e-10
1e-10
1e-10
0.664321
0.773036
0.339482
0.848382
1
0.523617
1
0.597365
0.941548
1e-10
1e-10
1e-10
1e-10
1e-10
1e-10
1e-10
1e-10
1e-10
1e-10
1e-10
1e-10
1e-10
1e-10
1e-10
1e-10
1
1
0.817941
1
1e-10
1.29257e-09
1e-10
1e-10
1e-10
1e-10
1e-10
1e-10
1e-10
1e-10
1e-10
1e-10
1e-10
1e-10
1e-10
1e-10
1e-10
1e-10
1e-10
0.623482
0.788848
0.251164
0.669902
0.779994
0.797664
0.274474
0.652557
1e-10
1e-10
1e-10
1e-10
1e-10
1e-10
1e-10
1e-10
1e-10
1e-10
1e-10
1e-10
1e-10
1e-10
1e-10
1e-10
1e-10
1e-10
1e-10
1e-10
1e-10
1e-10
1e-10
1e-10
1e-10
1e-10
1e-10
1e-10
1e-10
1e-10
1e-10
1e-10
1e-10
1e-10
1e-10
1e-10
1e-10
1e-10
1e-10
1e-10
1e-10
1e-10
1e-10
1e-10
1e-10
1e-10
1e-10
1e-10
1e-10
1e-10
1e-10
1e-10
1e-10
1e-10
1e-10
1e-10
1e-10
1e-10
1e-10
1e-10
1e-10
1e-10
1e-10
1e-10
1e-10
1e-10
1e-10
1e-10
1e-10
1e-10
1e-10
1e-10
1e-10
1e-10
1e-10
1e-10
1e-10
1e-10
1e-10
1e-10
1e-10
1e-10
1e-10
1e-10
1e-10
1e-10
1e-10
1e-10
1e-10
1e-10
1e-10
1e-10
1e-10
1e-10
1e-10
1e-10
1e-10
1e-10
1e-10
1e-10
1e-10
1e-10
1e-10
1e-10
1e-10
1e-10
1e-10
1e-10
1e-10
1e-10
1e-10
1e-10
1e-10
1e-10
1e-10
1e-10
1e-10
1e-10
1e-10
1e-10
1e-10
1e-10
1e-10
1e-10
1e-10
1e-10
1e-10
1e-10
1e-10
1e-10
1e-10
1e-10
1e-10
1e-10
1e-10
1e-10
1e-10
1e-10
1e-10
1e-10
1e-10
1e-10
1e-10
1e-10
1e-10
1e-10
1e-10
1e-10
1e-10
1e-10
1e-10
6.77474e-07
1e-10
1.05654e-05
2.01526e-08
0.00193505
0.127439
1e-10
1e-10
1e-10
1e-10
1e-10
1e-10
1e-10
1e-10
1e-10
1e-10
1e-10
1e-10
1e-10
1e-10
1e-10
1e-10
1e-10
1e-10
1e-10
1e-10
1e-10
1e-10
1e-10
1e-10
1e-10
1e-10
1e-10
1e-10
1e-10
1e-10
1e-10
1e-10
1e-10
1e-10
1e-10
0.339953
0.590348
1e-10
1e-10
1e-10
1e-10
1e-10
1.2489e-05
0.55469
0.255764
0.964402
0.438717
1
0.522177
1
0.875484
0.962165
1e-10
1e-10
1e-10
1e-10
1e-10
1e-10
1e-10
1e-10
1e-10
1e-10
1e-10
1e-10
1e-10
1e-10
1e-10
1e-10
1e-10
1e-10
1e-10
1e-10
1e-10
1e-10
1e-10
1e-10
1e-10
1e-10
1e-10
1e-10
1e-10
1e-10
1e-10
1e-10
1e-10
1e-10
1e-10
1e-10
1e-10
1e-10
1e-10
1e-10
1e-10
1e-10
1e-10
1e-10
1e-10
1e-10
1e-10
1e-10
0.803414
0.95
1
1e-10
1e-10
1e-10
1e-10
1e-10
1e-10
1e-10
1e-10
1e-10
1e-10
1e-10
1e-10
1e-10
1e-10
1e-10
1e-10
1e-10
1e-10
1e-10
1e-10
1e-10
1e-10
1e-10
1e-10
1e-10
1e-10
1e-10
1e-10
1e-10
1e-10
1e-10
1e-10
1e-10
1e-10
1e-10
1e-10
1e-10
1e-10
1e-10
1e-10
1e-10
1e-10
1e-10
1e-10
1e-10
1.40287e-08
1e-10
0.622219
1e-10
0.396713
1
1e-10
1e-10
1e-10
1e-10
1e-10
1e-10
1e-10
1e-10
1e-10
1e-10
1e-10
1e-10
1e-10
1e-10
1e-10
1e-10
1e-10
1e-10
1e-10
1e-10
1e-10
1e-10
1e-10
1e-10
1e-10
1e-10
1e-10
1e-10
1e-10
1e-10
1e-10
1e-10
1e-10
1e-10
1e-10
1e-10
1e-10
1e-10
1e-10
1e-10
1e-10
1e-10
1e-10
1e-10
1e-10
1e-10
1e-10
0.504533
0.881918
1e-10
0.850986
1e-10
1e-10
1e-10
1e-10
1e-10
1e-10
1e-10
1e-10
1e-10
1e-10
1e-10
1e-10
1e-10
1e-10
1e-10
1e-10
1e-10
1e-10
1e-10
1e-10
1e-10
1e-10
1e-10
1e-10
1e-10
1e-10
1e-10
1e-10
1e-10
1e-10
1e-10
1e-10
1e-10
1e-10
1e-10
1e-10
1e-10
1e-10
1e-10
1e-10
1e-10
1e-10
1e-10
1e-10
1e-10
1e-10
0.218921
0.829048
1e-10
1e-10
1e-10
1e-10
1e-10
1e-10
1e-10
1e-10
1e-10
1e-10
1e-10
1e-10
1e-10
1e-10
1e-10
1e-10
1e-10
1e-10
1e-10
1e-10
1e-10
1e-10
1e-10
1e-10
1e-10
1e-10
1e-10
1e-10
1e-10
1e-10
1e-10
1e-10
1e-10
1e-10
1e-10
1e-10
1e-10
1e-10
1e-10
1e-10
1e-10
1e-10
1e-10
1e-10
1e-10
1e-10
1e-10
1e-10
0.92488
1e-10
1e-10
1e-10
1e-10
1e-10
1e-10
1e-10
1e-10
1e-10
1e-10
1e-10
1e-10
1e-10
1e-10
1e-10
1e-10
1e-10
1e-10
1e-10
1e-10
1e-10
1e-10
1e-10
1e-10
1e-10
1e-10
1e-10
1e-10
1e-10
1e-10
1e-10
1e-10
1e-10
1e-10
1e-10
1e-10
1e-10
1e-10
1e-10
1e-10
1e-10
1e-10
1e-10
1e-10
1e-10
1e-10
1e-10
1e-10
1e-10
1e-10
1e-10
1e-10
1e-10
1e-10
1e-10
1e-10
1e-10
1e-10
1e-10
1e-10
1e-10
1e-10
1e-10
1e-10
1e-10
1e-10
1e-10
1e-10
1e-10
1e-10
1e-10
1e-10
1e-10
1e-10
1e-10
1e-10
1e-10
1e-10
1e-10
1e-10
1e-10
1e-10
1e-10
1e-10
1e-10
1e-10
1e-10
1e-10
1e-10
1e-10
1e-10
1e-10
1e-10
1e-10
1e-10
1e-10
1e-10
1e-10
1e-10
1e-10
1e-10
1e-10
1e-10
1e-10
1e-10
1e-10
1e-10
1e-10
1e-10
1e-10
1e-10
1e-10
1e-10
1e-10
1e-10
1e-10
1e-10
1e-10
1e-10
1e-10
1e-10
1e-10
1e-10
1e-10
1e-10
1e-10
1e-10
1e-10
1e-10
1e-10
1e-10
1e-10
1e-10
1e-10
1e-10
1e-10
1e-10
1e-10
1e-10
1e-10
1e-10
1e-10
1e-10
1e-10
1e-10
1e-10
1e-10
1e-10
1e-10
1e-10
1e-10
1e-10
1e-10
1e-10
1e-10
1e-10
1e-10
1e-10
1e-10
1e-10
1e-10
1e-10
1e-10
1e-10
1e-10
1e-10
1e-10
1e-10
1e-10
1e-10
1e-10
1e-10
1e-10
1e-10
1e-10
1e-10
1e-10
1e-10
1e-10
1e-10
1e-10
1e-10
1e-10
1e-10
1e-10
1e-10
1e-10
1e-10
1e-10
1e-10
1e-10
1e-10
1e-10
1e-10
1e-10
1e-10
1e-10
1e-10
1e-10
1e-10
1e-10
1e-10
1e-10
1e-10
1e-10
1e-10
1e-10
1e-10
1e-10
1e-10
1e-10
1e-10
1e-10
1e-10
1e-10
1e-10
1e-10
1e-10
1e-10
1e-10
1e-10
1e-10
1e-10
1e-10
1e-10
1e-10
1e-10
1e-10
1e-10
1e-10
1e-10
1e-10
1e-10
1e-10
1e-10
1e-10
1e-10
1e-10
1e-10
1e-10
1e-10
1e-10
1e-10
1e-10
1e-10
1e-10
1e-10
1e-10
1e-10
1e-10
1e-10
1e-10
1e-10
1e-10
1e-10
1e-10
1e-10
1e-10
1e-10
1e-10
1e-10
1e-10
1e-10
1e-10
1e-10
1e-10
1e-10
1e-10
1e-10
1e-10
1e-10
1e-10
1e-10
1e-10
1e-10
1e-10
1e-10
1e-10
1e-10
1e-10
1e-10
1e-10
1e-10
1e-10
1e-10
1e-10
1e-10
1e-10
1e-10
1e-10
1e-10
1e-10
1e-10
1e-10
1e-10
1e-10
1e-10
1e-10
1e-10
1e-10
1e-10
1e-10
1e-10
1e-10
1e-10
1e-10
1e-10
1e-10
1e-10
1e-10
1e-10
1e-10
1e-10
1e-10
1e-10
1e-10
1e-10
1e-10
1e-10
1e-10
1e-10
1e-10
1e-10
1e-10
1e-10
1e-10
1e-10
1e-10
1e-10
1e-10
1e-10
1e-10
1e-10
1e-10
1e-10
1e-10
1e-10
1e-10
1e-10
1e-10
1e-10
1e-10
1e-10
1e-10
1e-10
1e-10
1e-10
1e-10
1e-10
1e-10
1.47165e-10
1e-10
1e-10
1e-10
1e-10
1e-10
1e-10
1e-10
1e-10
1e-10
1e-10
1e-10
1e-10
1e-10
1e-10
1e-10
1e-10
1e-10
1e-10
1e-10
1e-10
1e-10
1e-10
1e-10