# vtk DataFile Version 4.1
vtk output
ASCII
DATASET UNSTRUCTURED_GRID

POINTS	45501	float
0	0	0.0	
0	1	0.0	
0	2	0.0	
0	3	0.0	
0	4	0.0	
0	5	0.0	
0	6	0.0	
0	7	0.0	
0	8	0.0	
0	9	0.0	
0	10	0.0	
0	11	0.0	
0	12	0.0	
0	13	0.0	
0	14	0.0	
0	15	0.0	
0	16	0.0	
0	17	0.0	
0	18	0.0	
0	19	0.0	
0	20	0.0	
0	21	0.0	
0	22	0.0	
0	23	0.0	
0	24	0.0	
0	25	0.0	
0	26	0.0	
0	27	0.0	
0	28	0.0	
0	29	0.0	
0	30	0.0	
0	31	0.0	
0	32	0.0	
0	33	0.0	
0	34	0.0	
0	35	0.0	
0	36	0.0	
0	37	0.0	
0	38	0.0	
0	39	0.0	
0	40	0.0	
0	41	0.0	
0	42	0.0	
0	43	0.0	
0	44	0.0	
0	45	0.0	
0	46	0.0	
0	47	0.0	
0	48	0.0	
0	49	0.0	
0	50	0.0	
0	51	0.0	
0	52	0.0	
0	53	0.0	
0	54	0.0	
0	55	0.0	
0	56	0.0	
0	57	0.0	
0	58	0.0	
0	59	0.0	
0	60	0.0	
0	61	0.0	
0	62	0.0	
0	63	0.0	
0	64	0.0	
0	65	0.0	
0	66	0.0	
0	67	0.0	
0	68	0.0	
0	69	0.0	
0	70	0.0	
0	71	0.0	
0	72	0.0	
0	73	0.0	
0	74	0.0	
0	75	0.0	
0	76	0.0	
0	77	0.0	
0	78	0.0	
0	79	0.0	
0	80	0.0	
0	81	0.0	
0	82	0.0	
0	83	0.0	
0	84	0.0	
0	85	0.0	
0	86	0.0	
0	87	0.0	
0	88	0.0	
0	89	0.0	
0	90	0.0	
0	91	0.0	
0	92	0.0	
0	93	0.0	
0	94	0.0	
0	95	0.0	
0	96	0.0	
0	97	0.0	
0	98	0.0	
0	99	0.0	
0	100	0.0	
1	0	0.0	
1	1	0.0	
1	2	0.0	
1	3	0.0	
1	4	0.0	
1	5	0.0	
1	6	0.0	
1	7	0.0	
1	8	0.0	
1	9	0.0	
1	10	0.0	
1	11	0.0	
1	12	0.0	
1	13	0.0	
1	14	0.0	
1	15	0.0	
1	16	0.0	
1	17	0.0	
1	18	0.0	
1	19	0.0	
1	20	0.0	
1	21	0.0	
1	22	0.0	
1	23	0.0	
1	24	0.0	
1	25	0.0	
1	26	0.0	
1	27	0.0	
1	28	0.0	
1	29	0.0	
1	30	0.0	
1	31	0.0	
1	32	0.0	
1	33	0.0	
1	34	0.0	
1	35	0.0	
1	36	0.0	
1	37	0.0	
1	38	0.0	
1	39	0.0	
1	40	0.0	
1	41	0.0	
1	42	0.0	
1	43	0.0	
1	44	0.0	
1	45	0.0	
1	46	0.0	
1	47	0.0	
1	48	0.0	
1	49	0.0	
1	50	0.0	
1	51	0.0	
1	52	0.0	
1	53	0.0	
1	54	0.0	
1	55	0.0	
1	56	0.0	
1	57	0.0	
1	58	0.0	
1	59	0.0	
1	60	0.0	
1	61	0.0	
1	62	0.0	
1	63	0.0	
1	64	0.0	
1	65	0.0	
1	66	0.0	
1	67	0.0	
1	68	0.0	
1	69	0.0	
1	70	0.0	
1	71	0.0	
1	72	0.0	
1	73	0.0	
1	74	0.0	
1	75	0.0	
1	76	0.0	
1	77	0.0	
1	78	0.0	
1	79	0.0	
1	80	0.0	
1	81	0.0	
1	82	0.0	
1	83	0.0	
1	84	0.0	
1	85	0.0	
1	86	0.0	
1	87	0.0	
1	88	0.0	
1	89	0.0	
1	90	0.0	
1	91	0.0	
1	92	0.0	
1	93	0.0	
1	94	0.0	
1	95	0.0	
1	96	0.0	
1	97	0.0	
1	98	0.0	
1	99	0.0	
1	100	0.0	
2	0	0.0	
2	1	0.0	
2	2	0.0	
2	3	0.0	
2	4	0.0	
2	5	0.0	
2	6	0.0	
2	7	0.0	
2	8	0.0	
2	9	0.0	
2	10	0.0	
2	11	0.0	
2	12	0.0	
2	13	0.0	
2	14	0.0	
2	15	0.0	
2	16	0.0	
2	17	0.0	
2	18	0.0	
2	19	0.0	
2	20	0.0	
2	21	0.0	
2	22	0.0	
2	23	0.0	
2	24	0.0	
2	25	0.0	
2	26	0.0	
2	27	0.0	
2	28	0.0	
2	29	0.0	
2	30	0.0	
2	31	0.0	
2	32	0.0	
2	33	0.0	
2	34	0.0	
2	35	0.0	
2	36	0.0	
2	37	0.0	
2	38	0.0	
2	39	0.0	
2	40	0.0	
2	41	0.0	
2	42	0.0	
2	43	0.0	
2	44	0.0	
2	45	0.0	
2	46	0.0	
2	47	0.0	
2	48	0.0	
2	49	0.0	
2	50	0.0	
2	51	0.0	
2	52	0.0	
2	53	0.0	
2	54	0.0	
2	55	0.0	
2	56	0.0	
2	57	0.0	
2	58	0.0	
2	59	0.0	
2	60	0.0	
2	61	0.0	
2	62	0.0	
2	63	0.0	
2	64	0.0	
2	65	0.0	
2	66	0.0	
2	67	0.0	
2	68	0.0	
2	69	0.0	
2	70	0.0	
2	71	0.0	
2	72	0.0	
2	73	0.0	
2	74	0.0	
2	75	0.0	
2	76	0.0	
2	77	0.0	
2	78	0.0	
2	79	0.0	
2	80	0.0	
2	81	0.0	
2	82	0.0	
2	83	0.0	
2	84	0.0	
2	85	0.0	
2	86	0.0	
2	87	0.0	
2	88	0.0	
2	89	0.0	
2	90	0.0	
2	91	0.0	
2	92	0.0	
2	93	0.0	
2	94	0.0	
2	95	0.0	
2	96	0.0	
2	97	0.0	
2	98	0.0	
2	99	0.0	
2	100	0.0	
3	0	0.0	
3	1	0.0	
3	2	0.0	
3	3	0.0	
3	4	0.0	
3	5	0.0	
3	6	0.0	
3	7	0.0	
3	8	0.0	
3	9	0.0	
3	10	0.0	
3	11	0.0	
3	12	0.0	
3	13	0.0	
3	14	0.0	
3	15	0.0	
3	16	0.0	
3	17	0.0	
3	18	0.0	
3	19	0.0	
3	20	0.0	
3	21	0.0	
3	22	0.0	
3	23	0.0	
3	24	0.0	
3	25	0.0	
3	26	0.0	
3	27	0.0	
3	28	0.0	
3	29	0.0	
3	30	0.0	
3	31	0.0	
3	32	0.0	
3	33	0.0	
3	34	0.0	
3	35	0.0	
3	36	0.0	
3	37	0.0	
3	38	0.0	
3	39	0.0	
3	40	0.0	
3	41	0.0	
3	42	0.0	
3	43	0.0	
3	44	0.0	
3	45	0.0	
3	46	0.0	
3	47	0.0	
3	48	0.0	
3	49	0.0	
3	50	0.0	
3	51	0.0	
3	52	0.0	
3	53	0.0	
3	54	0.0	
3	55	0.0	
3	56	0.0	
3	57	0.0	
3	58	0.0	
3	59	0.0	
3	60	0.0	
3	61	0.0	
3	62	0.0	
3	63	0.0	
3	64	0.0	
3	65	0.0	
3	66	0.0	
3	67	0.0	
3	68	0.0	
3	69	0.0	
3	70	0.0	
3	71	0.0	
3	72	0.0	
3	73	0.0	
3	74	0.0	
3	75	0.0	
3	76	0.0	
3	77	0.0	
3	78	0.0	
3	79	0.0	
3	80	0.0	
3	81	0.0	
3	82	0.0	
3	83	0.0	
3	84	0.0	
3	85	0.0	
3	86	0.0	
3	87	0.0	
3	88	0.0	
3	89	0.0	
3	90	0.0	
3	91	0.0	
3	92	0.0	
3	93	0.0	
3	94	0.0	
3	95	0.0	
3	96	0.0	
3	97	0.0	
3	98	0.0	
3	99	0.0	
3	100	0.0	
4	0	0.0	
4	1	0.0	
4	2	0.0	
4	3	0.0	
4	4	0.0	
4	5	0.0	
4	6	0.0	
4	7	0.0	
4	8	0.0	
4	9	0.0	
4	10	0.0	
4	11	0.0	
4	12	0.0	
4	13	0.0	
4	14	0.0	
4	15	0.0	
4	16	0.0	
4	17	0.0	
4	18	0.0	
4	19	0.0	
4	20	0.0	
4	21	0.0	
4	22	0.0	
4	23	0.0	
4	24	0.0	
4	25	0.0	
4	26	0.0	
4	27	0.0	
4	28	0.0	
4	29	0.0	
4	30	0.0	
4	31	0.0	
4	32	0.0	
4	33	0.0	
4	34	0.0	
4	35	0.0	
4	36	0.0	
4	37	0.0	
4	38	0.0	
4	39	0.0	
4	40	0.0	
4	41	0.0	
4	42	0.0	
4	43	0.0	
4	44	0.0	
4	45	0.0	
4	46	0.0	
4	47	0.0	
4	48	0.0	
4	49	0.0	
4	50	0.0	
4	51	0.0	
4	52	0.0	
4	53	0.0	
4	54	0.0	
4	55	0.0	
4	56	0.0	
4	57	0.0	
4	58	0.0	
4	59	0.0	
4	60	0.0	
4	61	0.0	
4	62	0.0	
4	63	0.0	
4	64	0.0	
4	65	0.0	
4	66	0.0	
4	67	0.0	
4	68	0.0	
4	69	0.0	
4	70	0.0	
4	71	0.0	
4	72	0.0	
4	73	0.0	
4	74	0.0	
4	75	0.0	
4	76	0.0	
4	77	0.0	
4	78	0.0	
4	79	0.0	
4	80	0.0	
4	81	0.0	
4	82	0.0	
4	83	0.0	
4	84	0.0	
4	85	0.0	
4	86	0.0	
4	87	0.0	
4	88	0.0	
4	89	0.0	
4	90	0.0	
4	91	0.0	
4	92	0.0	
4	93	0.0	
4	94	0.0	
4	95	0.0	
4	96	0.0	
4	97	0.0	
4	98	0.0	
4	99	0.0	
4	100	0.0	
5	0	0.0	
5	1	0.0	
5	2	0.0	
5	3	0.0	
5	4	0.0	
5	5	0.0	
5	6	0.0	
5	7	0.0	
5	8	0.0	
5	9	0.0	
5	10	0.0	
5	11	0.0	
5	12	0.0	
5	13	0.0	
5	14	0.0	
5	15	0.0	
5	16	0.0	
5	17	0.0	
5	18	0.0	
5	19	0.0	
5	20	0.0	
5	21	0.0	
5	22	0.0	
5	23	0.0	
5	24	0.0	
5	25	0.0	
5	26	0.0	
5	27	0.0	
5	28	0.0	
5	29	0.0	
5	30	0.0	
5	31	0.0	
5	32	0.0	
5	33	0.0	
5	34	0.0	
5	35	0.0	
5	36	0.0	
5	37	0.0	
5	38	0.0	
5	39	0.0	
5	40	0.0	
5	41	0.0	
5	42	0.0	
5	43	0.0	
5	44	0.0	
5	45	0.0	
5	46	0.0	
5	47	0.0	
5	48	0.0	
5	49	0.0	
5	50	0.0	
5	51	0.0	
5	52	0.0	
5	53	0.0	
5	54	0.0	
5	55	0.0	
5	56	0.0	
5	57	0.0	
5	58	0.0	
5	59	0.0	
5	60	0.0	
5	61	0.0	
5	62	0.0	
5	63	0.0	
5	64	0.0	
5	65	0.0	
5	66	0.0	
5	67	0.0	
5	68	0.0	
5	69	0.0	
5	70	0.0	
5	71	0.0	
5	72	0.0	
5	73	0.0	
5	74	0.0	
5	75	0.0	
5	76	0.0	
5	77	0.0	
5	78	0.0	
5	79	0.0	
5	80	0.0	
5	81	0.0	
5	82	0.0	
5	83	0.0	
5	84	0.0	
5	85	0.0	
5	86	0.0	
5	87	0.0	
5	88	0.0	
5	89	0.0	
5	90	0.0	
5	91	0.0	
5	92	0.0	
5	93	0.0	
5	94	0.0	
5	95	0.0	
5	96	0.0	
5	97	0.0	
5	98	0.0	
5	99	0.0	
5	100	0.0	
6	0	0.0	
6	1	0.0	
6	2	0.0	
6	3	0.0	
6	4	0.0	
6	5	0.0	
6	6	0.0	
6	7	0.0	
6	8	0.0	
6	9	0.0	
6	10	0.0	
6	11	0.0	
6	12	0.0	
6	13	0.0	
6	14	0.0	
6	15	0.0	
6	16	0.0	
6	17	0.0	
6	18	0.0	
6	19	0.0	
6	20	0.0	
6	21	0.0	
6	22	0.0	
6	23	0.0	
6	24	0.0	
6	25	0.0	
6	26	0.0	
6	27	0.0	
6	28	0.0	
6	29	0.0	
6	30	0.0	
6	31	0.0	
6	32	0.0	
6	33	0.0	
6	34	0.0	
6	35	0.0	
6	36	0.0	
6	37	0.0	
6	38	0.0	
6	39	0.0	
6	40	0.0	
6	41	0.0	
6	42	0.0	
6	43	0.0	
6	44	0.0	
6	45	0.0	
6	46	0.0	
6	47	0.0	
6	48	0.0	
6	49	0.0	
6	50	0.0	
6	51	0.0	
6	52	0.0	
6	53	0.0	
6	54	0.0	
6	55	0.0	
6	56	0.0	
6	57	0.0	
6	58	0.0	
6	59	0.0	
6	60	0.0	
6	61	0.0	
6	62	0.0	
6	63	0.0	
6	64	0.0	
6	65	0.0	
6	66	0.0	
6	67	0.0	
6	68	0.0	
6	69	0.0	
6	70	0.0	
6	71	0.0	
6	72	0.0	
6	73	0.0	
6	74	0.0	
6	75	0.0	
6	76	0.0	
6	77	0.0	
6	78	0.0	
6	79	0.0	
6	80	0.0	
6	81	0.0	
6	82	0.0	
6	83	0.0	
6	84	0.0	
6	85	0.0	
6	86	0.0	
6	87	0.0	
6	88	0.0	
6	89	0.0	
6	90	0.0	
6	91	0.0	
6	92	0.0	
6	93	0.0	
6	94	0.0	
6	95	0.0	
6	96	0.0	
6	97	0.0	
6	98	0.0	
6	99	0.0	
6	100	0.0	
7	0	0.0	
7	1	0.0	
7	2	0.0	
7	3	0.0	
7	4	0.0	
7	5	0.0	
7	6	0.0	
7	7	0.0	
7	8	0.0	
7	9	0.0	
7	10	0.0	
7	11	0.0	
7	12	0.0	
7	13	0.0	
7	14	0.0	
7	15	0.0	
7	16	0.0	
7	17	0.0	
7	18	0.0	
7	19	0.0	
7	20	0.0	
7	21	0.0	
7	22	0.0	
7	23	0.0	
7	24	0.0	
7	25	0.0	
7	26	0.0	
7	27	0.0	
7	28	0.0	
7	29	0.0	
7	30	0.0	
7	31	0.0	
7	32	0.0	
7	33	0.0	
7	34	0.0	
7	35	0.0	
7	36	0.0	
7	37	0.0	
7	38	0.0	
7	39	0.0	
7	40	0.0	
7	41	0.0	
7	42	0.0	
7	43	0.0	
7	44	0.0	
7	45	0.0	
7	46	0.0	
7	47	0.0	
7	48	0.0	
7	49	0.0	
7	50	0.0	
7	51	0.0	
7	52	0.0	
7	53	0.0	
7	54	0.0	
7	55	0.0	
7	56	0.0	
7	57	0.0	
7	58	0.0	
7	59	0.0	
7	60	0.0	
7	61	0.0	
7	62	0.0	
7	63	0.0	
7	64	0.0	
7	65	0.0	
7	66	0.0	
7	67	0.0	
7	68	0.0	
7	69	0.0	
7	70	0.0	
7	71	0.0	
7	72	0.0	
7	73	0.0	
7	74	0.0	
7	75	0.0	
7	76	0.0	
7	77	0.0	
7	78	0.0	
7	79	0.0	
7	80	0.0	
7	81	0.0	
7	82	0.0	
7	83	0.0	
7	84	0.0	
7	85	0.0	
7	86	0.0	
7	87	0.0	
7	88	0.0	
7	89	0.0	
7	90	0.0	
7	91	0.0	
7	92	0.0	
7	93	0.0	
7	94	0.0	
7	95	0.0	
7	96	0.0	
7	97	0.0	
7	98	0.0	
7	99	0.0	
7	100	0.0	
8	0	0.0	
8	1	0.0	
8	2	0.0	
8	3	0.0	
8	4	0.0	
8	5	0.0	
8	6	0.0	
8	7	0.0	
8	8	0.0	
8	9	0.0	
8	10	0.0	
8	11	0.0	
8	12	0.0	
8	13	0.0	
8	14	0.0	
8	15	0.0	
8	16	0.0	
8	17	0.0	
8	18	0.0	
8	19	0.0	
8	20	0.0	
8	21	0.0	
8	22	0.0	
8	23	0.0	
8	24	0.0	
8	25	0.0	
8	26	0.0	
8	27	0.0	
8	28	0.0	
8	29	0.0	
8	30	0.0	
8	31	0.0	
8	32	0.0	
8	33	0.0	
8	34	0.0	
8	35	0.0	
8	36	0.0	
8	37	0.0	
8	38	0.0	
8	39	0.0	
8	40	0.0	
8	41	0.0	
8	42	0.0	
8	43	0.0	
8	44	0.0	
8	45	0.0	
8	46	0.0	
8	47	0.0	
8	48	0.0	
8	49	0.0	
8	50	0.0	
8	51	0.0	
8	52	0.0	
8	53	0.0	
8	54	0.0	
8	55	0.0	
8	56	0.0	
8	57	0.0	
8	58	0.0	
8	59	0.0	
8	60	0.0	
8	61	0.0	
8	62	0.0	
8	63	0.0	
8	64	0.0	
8	65	0.0	
8	66	0.0	
8	67	0.0	
8	68	0.0	
8	69	0.0	
8	70	0.0	
8	71	0.0	
8	72	0.0	
8	73	0.0	
8	74	0.0	
8	75	0.0	
8	76	0.0	
8	77	0.0	
8	78	0.0	
8	79	0.0	
8	80	0.0	
8	81	0.0	
8	82	0.0	
8	83	0.0	
8	84	0.0	
8	85	0.0	
8	86	0.0	
8	87	0.0	
8	88	0.0	
8	89	0.0	
8	90	0.0	
8	91	0.0	
8	92	0.0	
8	93	0.0	
8	94	0.0	
8	95	0.0	
8	96	0.0	
8	97	0.0	
8	98	0.0	
8	99	0.0	
8	100	0.0	
9	0	0.0	
9	1	0.0	
9	2	0.0	
9	3	0.0	
9	4	0.0	
9	5	0.0	
9	6	0.0	
9	7	0.0	
9	8	0.0	
9	9	0.0	
9	10	0.0	
9	11	0.0	
9	12	0.0	
9	13	0.0	
9	14	0.0	
9	15	0.0	
9	16	0.0	
9	17	0.0	
9	18	0.0	
9	19	0.0	
9	20	0.0	
9	21	0.0	
9	22	0.0	
9	23	0.0	
9	24	0.0	
9	25	0.0	
9	26	0.0	
9	27	0.0	
9	28	0.0	
9	29	0.0	
9	30	0.0	
9	31	0.0	
9	32	0.0	
9	33	0.0	
9	34	0.0	
9	35	0.0	
9	36	0.0	
9	37	0.0	
9	38	0.0	
9	39	0.0	
9	40	0.0	
9	41	0.0	
9	42	0.0	
9	43	0.0	
9	44	0.0	
9	45	0.0	
9	46	0.0	
9	47	0.0	
9	48	0.0	
9	49	0.0	
9	50	0.0	
9	51	0.0	
9	52	0.0	
9	53	0.0	
9	54	0.0	
9	55	0.0	
9	56	0.0	
9	57	0.0	
9	58	0.0	
9	59	0.0	
9	60	0.0	
9	61	0.0	
9	62	0.0	
9	63	0.0	
9	64	0.0	
9	65	0.0	
9	66	0.0	
9	67	0.0	
9	68	0.0	
9	69	0.0	
9	70	0.0	
9	71	0.0	
9	72	0.0	
9	73	0.0	
9	74	0.0	
9	75	0.0	
9	76	0.0	
9	77	0.0	
9	78	0.0	
9	79	0.0	
9	80	0.0	
9	81	0.0	
9	82	0.0	
9	83	0.0	
9	84	0.0	
9	85	0.0	
9	86	0.0	
9	87	0.0	
9	88	0.0	
9	89	0.0	
9	90	0.0	
[...]
CELL_DATA	15000
SCALARS Rho0 float
LOOKUP_TABLE default
1
1
1
1
1
1
1
1
1
1
1
1
1
1
1
1
1
1
1
1
1
1
1
1
1
1
1
1
1.14026e-06
2.65897e-07
1.57819e-07
1.0969e-07
7.8115e-08
6.24415e-08
4.99819e-08
3.97575e-08
3.34378e-08
2.88802e-08
2.51246e-08
2.20568e-08
1.95282e-08
1.76137e-08
1.63165e-08
1.49664e-08
1.3594e-08
1.22148e-08
1.08469e-08
1e-08
1e-08
1e-08
1e-08
1e-08
1e-08
1e-08
1e-08
1e-08
1e-08
1e-08
1e-08
1e-08
1e-08
1e-08
1e-08
1e-08
1e-08
1e-08
1e-08
1e-08
1e-08
1e-08
1e-08
1e-08
1e-08
1e-08
1e-08
1e-08
1e-08
1e-08
1e-08
1e-08
1e-08
1e-08
1e-08
1e-08
1e-08
1e-08
1e-08
1e-08
1e-08
1e-08
1e-08
1e-08
1e-08
1e-08
1e-08
1e-08
1e-08
1e-08
1e-08
1e-08
1
1
1
1
1
1
1
1
1
1
1
1
1
1
1
1
1
1
1
1
1
1
1
1
1
1
1
1
1
1
1
2.83967e-07
1.28706e-07
8.08341e-08
5.43902e-08
4.11842e-08
3.1695e-08
2.35223e-08
1.89674e-08
1.57944e-08
1.32189e-08
1.11544e-08
1.03749e-08
1e-08
1e-08
1e-08
1e-08
1e-08
1e-08
1e-08
1e-08
1e-08
1e-08
1e-08
1e-08
1e-08
1e-08
1e-08
1e-08
1e-08
1e-08
1e-08
1e-08
1e-08
1e-08
1e-08
1e-08
1e-08
1e-08
1e-08
1e-08
1e-08
1e-08
1e-08
1e-08
1e-08
1e-08
1e-08
1e-08
1e-08
1e-08
1e-08
1e-08
1e-08
1e-08
1e-08
1e-08
1e-08
1e-08
1e-08
1e-08
1e-08
1e-08
1e-08
1e-08
1e-08
1e-08
1e-08
1e-08
1e-08
1
1
1
1
1
1
1
1
1
1
1
1
1
1
1
1
1
1
1
1
1
1
1
1
1
1
1
1
1
1
1
1
1
2.81823e-07
1.00424e-07
6.32476e-08
4.32098e-08
3.31968e-08
2.4726e-08
1.99153e-08
1.6447e-08
1.35447e-08
1.17428e-08
1.07021e-08
1e-08
1e-08
1e-08
1e-08
1e-08
1e-08
1e-08
1e-08
1e-08
1e-08
1e-08
1e-08
1e-08
1e-08
1e-08
1e-08
1e-08
1e-08
1e-08
1e-08
1e-08
1e-08
1e-08
1e-08
1e-08
1e-08
1e-08
1e-08
1e-08
1e-08
1e-08
1e-08
1e-08
1e-08
1e-08
1e-08
1e-08
1e-08
1e-08
1e-08
1e-08
1e-08
1e-08
1e-08
1e-08
1e-08
1e-08
1e-08
1e-08
1e-08
1e-08
1e-08
1e-08
1e-08
1e-08
1e-08
1
1
1
1
1
1
1
1
1
1
1
1
1
1
1
1
1
1
1
1
1
1
1
1
1
1
1
1
1
1
1
1
1
1
1
1.99105e-07
7.88013e-08
4.66306e-08
3.50534e-08
2.57347e-08
2.03493e-08
1.68809e-08
1.38623e-08
1.18409e-08
1.07464e-08
1e-08
1e-08
1e-08
1e-08
1e-08
1e-08
1e-08
1e-08
1e-08
1e-08
1e-08
1e-08
1e-08
1e-08
1e-08
1e-08
1e-08
1e-08
1e-08
1e-08
1e-08
1e-08
1e-08
1e-08
1e-08
1e-08
1e-08
1e-08
1e-08
1e-08
1e-08
1e-08
1e-08
1e-08
1e-08
1e-08
1e-08
1e-08
1e-08
1e-08
1e-08
1e-08
1e-08
1e-08
1e-08
1e-08
1e-08
1e-08
1e-08
1e-08
1e-08
1e-08
1e-08
1e-08
1e-08
1
1
1
1
1
1
1
1
1
1
1
1
1
1
1
1
1
1
1
1
1
1
1
1
1
1
1
1
1
1
1
1
1
1
1
1
1
1.25221e-07
5.64888e-08
3.73349e-08
2.66913e-08
2.06388e-08
1.70149e-08
1.39109e-08
1.19758e-08
1.08366e-08
1e-08
1e-08
1e-08
1e-08
1e-08
1e-08
1e-08
1e-08
1e-08
1e-08
1e-08
1e-08
1e-08
1e-08
1e-08
1e-08
1e-08
1e-08
1e-08
1e-08
1e-08
1e-08
1e-08
1e-08
1e-08
1e-08
1e-08
1e-08
1e-08
1e-08
1e-08
1e-08
1e-08
1e-08
1e-08
1e-08
1e-08
1e-08
1e-08
1e-08
1e-08
1e-08
1e-08
1e-08
1e-08
1e-08
1e-08
1e-08
1e-08
1e-08
1e-08
1e-08
1e-08
1e-08
1
1
1e-08
1e-08
1e-08
1e-08
1e-08
1
1
1
1
1
1
1
1
1
1
1
1
1
1
1
1
1
1
1
1
1
1
1
1
1
1
1
1
1
1
1
2.69569e-07
7.19184e-08
4.06833e-08
2.80756e-08
2.11327e-08
1.72282e-08
1.39752e-08
1.21632e-08
1.0979e-08
1e-08
1e-08
1e-08
1e-08
1e-08
1e-08
1e-08
1e-08
1e-08
1e-08
1e-08
1e-08
1e-08
1e-08
1e-08
1e-08
1e-08
1e-08
1e-08
1e-08
1e-08
1e-08
1e-08
1e-08
1e-08
1e-08
1e-08
1e-08
1e-08
1e-08
1e-08
1e-08
1e-08
1e-08
1e-08
1e-08
1e-08
1e-08
1e-08
1e-08
1e-08
1e-08
1e-08
1e-08
1e-08
1e-08
1e-08
1e-08
1e-08
1e-08
1e-08
1e-08
1e-08
1
1
1e-08
1e-08
1e-08
1e-08
1e-08
1e-08
1
1
1
1
1
1
1
1
1
1
1
1
1
1
1
1
1
1
1
1
1
1
1
1
1
1
1
1
1
1
1
1
1.06495e-07
4.54138e-08
2.99241e-08
2.19157e-08
1.76101e-08
1.41202e-08
1.24422e-08
1.11896e-08
1.0129e-08
1e-08
1e-08
1e-08
1e-08
1e-08
1e-08
1e-08
1e-08
1e-08
1e-08
1e-08
1e-08
1e-08
1e-08
1e-08
1e-08
1e-08
1e-08
1e-08
1e-08
1e-08
1e-08
1e-08
1e-08
1e-08
1e-08
1e-08
1e-08
1e-08
1e-08
1e-08
1e-08
1e-08
1e-08
1e-08
1e-08
1e-08
1e-08
1e-08
1e-08
1e-08
1e-08
1e-08
1e-08
1e-08
1e-08
1e-08
1e-08
1e-08
1e-08
1e-08
1
1
1e-08
1e-08
1e-08
1e-08
1e-08
1e-08
1e-08
1e-08
1
1
1
1
1
1
1
1
1
1
1
1
1
1
1
1
1
1
1
1
1
1
1
1
1
1
1
1
1
1
1
1.78163e-07
5.35562e-08
3.24465e-08
2.30099e-08
1.81765e-08
1.43759e-08
1.27817e-08
1.14337e-08
1.03053e-08
1e-08
1e-08
1e-08
1e-08
1e-08
1e-08
1e-08
1e-08
1e-08
1e-08
1e-08
1e-08
1e-08
1e-08
1e-08
1e-08
1e-08
1e-08
1e-08
1e-08
1e-08
1e-08
1e-08
1e-08
1e-08
1e-08
1e-08
1e-08
1e-08
1e-08
1e-08
1e-08
1e-08
1e-08
1e-08
1e-08
1e-08
1e-08
1e-08
1e-08
1e-08
1e-08
1e-08
1e-08
1e-08
1e-08
1e-08
1e-08
1e-08
1e-08
1
1
1e-08
1e-08
1e-08
1e-08
1e-08
1e-08
1e-08
1e-08
1e-08
1
1
1
1
1
1
1
1
1
1
1
1
1
1
1
1
1
1
1
1
1
1
1
1
1
1
1
1
1
1
1
1
6.76287e-08
3.58247e-08
2.43516e-08
1.89007e-08
1.48844e-08
1.31431e-08
1.16884e-08
1.04855e-08
1e-08
1e-08
1e-08
1e-08
1e-08
1e-08
1e-08
1e-08
1e-08
1e-08
1e-08
1e-08
1e-08
1e-08
1e-08
1e-08
1e-08
1e-08
1e-08
1e-08
1e-08
1e-08
1e-08
1e-08
1e-08
1e-08
1e-08
1e-08
1e-08
1e-08
1e-08
1e-08
1e-08
1e-08
1e-08
1e-08
1e-08
1e-08
1e-08
1e-08
1e-08
1e-08
1e-08
1e-08
1e-08
1e-08
1e-08
1e-08
1e-08
1
1
5.39594e-07
1e-08
1e-08
1e-08
1e-08
1e-08
1e-08
1e-08
1e-08
1e-08
1.04829e-08
1
1
1
1
1
1
1
1
1
1
1
1
1
1
1
1
1
1
1
1
1
1
1
1
1
1
1
1
1
1
1
8.49324e-08
3.97536e-08
2.58228e-08
1.97212e-08
1.53955e-08
1.35079e-08
1.19455e-08
1.06673e-08
1e-08
1e-08
1e-08
1e-08
1e-08
1e-08
1e-08
1e-08
1e-08
1e-08
1e-08
1e-08
1e-08
1e-08
1e-08
1e-08
1e-08
1e-08
1e-08
1e-08
1e-08
1e-08
1e-08
1e-08
1e-08
1e-08
1e-08
1e-08
1e-08
1e-08
1e-08
1e-08
1e-08
1e-08
1e-08
1e-08
1e-08
1e-08
1e-08
1e-08
1e-08
1e-08
1e-08
1e-08
1e-08
1e-08
1e-08
1e-08
1
1
1
1e-08
1e-08
1e-08
1e-08
1e-08
1e-08
1e-08
1e-08
1e-08
1e-08
1e-08
1.92821e-08
1
1
1
1
1
1
1
1
1
1
1
1
1
1
1
1
1
1
1
1
1
1
1
1
1
1
1
1
1
1
1.10531e-07
4.3542e-08
2.72976e-08
2.05571e-08
1.58902e-08
1.38629e-08
1.21952e-08
1.08443e-08
1e-08
1e-08
1e-08
1e-08
1e-08
1e-08
1e-08
1e-08
1e-08
1e-08
1e-08
1e-08
1e-08
1e-08
1e-08
1e-08
1e-08
1e-08
1e-08
1e-08
1e-08
1e-08
1e-08
1e-08
1e-08
1e-08
1e-08
1e-08
1e-08
1e-08
1e-08
1e-08
1e-08
1e-08
1e-08
1e-08
1e-08
1e-08
1e-08
1e-08
1e-08
1e-08
1e-08
1e-08
1e-08
1e-08
1e-08
1
1
1
1e-08
1e-08
1e-08
1e-08
1e-08
1e-08
1e-08
1e-08
1e-08
1e-08
1e-08
1e-08
1e-08
4.55567e-08
1
1
1
1
1
1
1
1
1
1
1
1
1
1
1
1
1
1
1
1
1
1
1
1
1
1
1
1
1
1.38843e-07
4.71502e-08
2.86554e-08
2.13278e-08
1.63508e-08
1.41922e-08
1.24258e-08
1.10116e-08
1e-08
1e-08
1e-08
1e-08
1e-08
1e-08
1e-08
1e-08
1e-08
1e-08
1e-08
1e-08
1e-08
1e-08
1e-08
1e-08
1e-08
1e-08
1e-08
1e-08
1e-08
1e-08
1e-08
1e-08
1e-08
1e-08
1e-08
1e-08
1e-08
1e-08
1e-08
1e-08
1e-08
1e-08
1e-08
1e-08
1e-08
1e-08
1e-08
1e-08
1e-08
1e-08
1e-08
1e-08
1e-08
1e-08
1
1
1
1e-08
1e-08
1e-08
1e-08
1e-08
1e-08
1e-08
1e-08
1e-08
1e-08
1e-08
1e-08
1e-08
1e-08
1.25361e-08
1.34633e-05
1
1
1
1
1
1
1
1
1
1
1
1
1
1
1
1
1
1
1
1
1
1
1
1
1
1
1
1
1.6341e-07
5.01249e-08
2.98e-08
2.19701e-08
1.67606e-08
1.44827e-08
1.26298e-08
1.11622e-08
1.00101e-08
1e-08
1e-08
1e-08
1e-08
1e-08
1e-08
1e-08
1e-08
1e-08
1e-08
1e-08
1e-08
1e-08
1e-08
1e-08
1e-08
1e-08
1e-08
1e-08
1e-08
1e-08
1e-08
1e-08
1e-08
1e-08
1e-08
1e-08
1e-08
1e-08
1e-08
1e-08
1e-08
1e-08
1e-08
1e-08
1e-08
1e-08
1e-08
1e-08
1e-08
1e-08
1e-08
1e-08
1e-08
1
1
1
1e-08
1e-08
1e-08
1e-08
1e-08
1e-08
1e-08
1e-08
1e-08
1e-08
1e-08
1e-08
1e-08
1e-08
1e-08
1e-08
1.92319e-08
1
1
1
1
1
1
1
1
1
1
1
1
1
1
1
1
1
1
1
1
1
1
1
1
1
1
1
1
1.80376e-07
5.21422e-08
3.0675e-08
2.24461e-08
1.71063e-08
1.47245e-08
1.27964e-08
1.12757e-08
1.00828e-08
1e-08
1e-08
1e-08
1e-08
1e-08
1e-08
1e-08
1e-08
1e-08
1e-08
1e-08
1e-08
1e-08
1e-08
1e-08
1e-08
1e-08
1e-08
1e-08
1e-08
1e-08
1e-08
1e-08
1e-08
1e-08
1e-08
1e-08
1e-08
1e-08
1e-08
1e-08
1e-08
1e-08
1e-08
1e-08
1e-08
1e-08
1e-08
1e-08
1e-08
1e-08
1e-08
1e-08
1
1
1
1e-08
1e-08
1e-08
1e-08
1e-08
1e-08
1e-08
1e-08
1e-08
1e-08
1e-08
1e-08
1e-08
1e-08
1e-08
1e-08
1.11049e-08
2.49083e-08
1.43286e-07
1
1
1
1
1
1
1
1
1
1
1
1
1
1
1
1
1
1
1
1
1
1
1
1
1
1
1
1.86529e-07
5.31589e-08
3.12601e-08
2.27386e-08
1.7377e-08
1.49039e-08
1.29038e-08
1.13318e-08
1.01209e-08
1e-08
1e-08
1e-08
1e-08
1e-08
1e-08
1e-08
1e-08
1e-08
1e-08
1e-08
1e-08
1e-08
1e-08
1e-08
1e-08
1e-08
1e-08
1e-08
1e-08
1e-08
1e-08
1e-08
1e-08
1e-08
1e-08
1e-08
1e-08
1e-08
1e-08
1e-08
1e-08
1e-08
1e-08
1e-08
1e-08
1e-08
1e-08
1e-08
1e-08
1e-08
1e-08
1
1
1
1e-08
1e-08
1e-08
1e-08
1e-08
1e-08
1e-08
1e-08
1e-08
1e-08
1e-08
1e-08
1e-08
1e-08
1e-08
1e-08
1.42235e-08
3.13437e-08
1.68756e-07
1
1
1
1
1
1
1
1
1
1
1
1
1
1
1
1
1
1
1
1
1
1
1
1
1
1
1
1
1.82777e-07
5.32675e-08
3.15574e-08
2.2844e-08
1.75569e-08
1.49988e-08
1.29336e-08
1.1338e-08
1.01377e-08
1e-08
1e-08
1e-08
1e-08
1e-08
1e-08
1e-08
1e-08
1e-08
1e-08
1e-08
1e-08
1e-08
1e-08
1e-08
1e-08
1e-08
1e-08
1e-08
1e-08
1e-08
1e-08
1e-08
1e-08
1e-08
1e-08
1e-08
1e-08
1e-08
1e-08
1e-08
1e-08
1e-08
1e-08
1e-08
1e-08
1e-08
1e-08
1e-08
1e-08
1e-08
1
1
1
1e-08
1e-08
1e-08
1e-08
1e-08
1e-08
1e-08
1e-08
1e-08
1e-08
1e-08
1e-08
1e-08
1e-08
1e-08
1e-08
1.79538e-08
4.17995e-08
5.24571e-07
1
1
1
1
1
1
1
1
1
1
1
1
1
1
1
1
1
1
1
1
1
1
1
1
1
1
1
1
1
1.7142e-07
5.261e-08
3.15826e-08
2.27708e-08
1.76221e-08
1.4992e-08
1.28938e-08
1.13078e-08
1.01347e-08
1e-08
1e-08
1e-08
1e-08
1e-08
1e-08
1e-08
1e-08
1e-08
1e-08
1e-08
1e-08
1e-08
1e-08
1e-08
1e-08
1e-08
1e-08
1e-08
1e-08
1e-08
1e-08
1e-08
1e-08
1e-08
1e-08
1e-08
1e-08
1e-08
1e-08
1e-08
1e-08
1e-08
1e-08
1e-08
1e-08
1e-08
1e-08
1e-08
1e-08
1
1
1
1e-08
1e-08
1e-08
1e-08
1e-08
1e-08
1e-08
1e-08
1e-08
1e-08
1e-08
1e-08
1e-08
1e-08
1e-08
1.15681e-08
2.24555e-08
6.0113e-08
1
1
1
1
1
1
1
1
1
1
1
1
1
1
1
1
1
1
1
1
1
1
1
1
1
1
1
1
1
1
1
1.55042e-07
5.13275e-08
3.13597e-08
2.25313e-08
1.75615e-08
1.48904e-08
1.28023e-08
1.12498e-08
1.01074e-08
1e-08
1e-08
1e-08
1e-08
1e-08
1e-08
1e-08
1e-08
1e-08
1e-08
1e-08
1e-08
1e-08
1e-08
1e-08
1e-08
1e-08
1e-08
1e-08
1e-08
1e-08
1e-08
1e-08
1e-08
1e-08
1e-08
1e-08
1e-08
1e-08
1e-08
1e-08
1e-08
1e-08
1e-08
1e-08
1e-08
1e-08
1e-08
1e-08
1
1
1
1e-08
1e-08
1e-08
1e-08
1e-08
1e-08
1e-08
1e-08
1e-08
1e-08
1e-08
1e-08
1e-08
1e-08
1e-08
1.50988e-08
2.94728e-08
8.86369e-08
1
1
1
1
1
1
1
1
1
1
1
1
1
1
1
1
1
1
1
1
1
1
1
1
1
1
1
1
1
1
1
1
1.36326e-07
4.95549e-08
3.09106e-08
2.21297e-08
1.73838e-08
1.47127e-08
1.26644e-08
1.11676e-08
1.0054e-08
1e-08
1e-08
1e-08
1e-08
1e-08
1e-08
1e-08
1e-08
1e-08
1e-08
1e-08
1e-08
1e-08
1e-08
1e-08
1e-08
1e-08
1e-08
1e-08
1e-08
1e-08
1e-08
1e-08
1e-08
1e-08
1e-08
1e-08
1e-08
1e-08
1e-08
1e-08
1e-08
1e-08
1e-08
1e-08
1e-08
1e-08
1e-08
1
1
1
1e-08
1e-08
1e-08
1e-08
1e-08
1e-08
1e-08
1e-08
1e-08
1e-08
1e-08
1e-08
1e-08
1e-08
1.04567e-08
1.93764e-08
4.00907e-08
1.59778e-07
1
1
1
1
1
1
1
1
1
1
1
1
1
1
1
1
1
1
1
1
1
1
1
1
1
1
1
1
1
1
1
1
1
1.17969e-07
4.74467e-08
3.02391e-08
2.15634e-08
1.71065e-08
1.44746e-08
1.2488e-08
1.10651e-08
1e-08
1e-08
1e-08
1e-08
1e-08
1e-08
1e-08
1e-08
1e-08
1e-08
1e-08
1e-08
1e-08
1e-08
1e-08
1e-08
1e-08
1e-08
1e-08
1e-08
1e-08
1e-08
1e-08
1e-08
1e-08
1e-08
1e-08
1e-08
1e-08
1e-08
1e-08
1e-08
1e-08
1e-08
1e-08
1e-08
1e-08
1e-08
1
1
1
1e-08
1e-08
1e-08
1e-08
1e-08
1e-08
1e-08
1e-08
1e-08
1e-08
1e-08
1e-08
1e-08
1e-08
1.28172e-08
2.46435e-08
5.33892e-08
2.37847e-06
1
1
1
1
1
1
1
1
1
1
1
1
1
1
1
1
1
1
1
1
1
1
1
1
1
1
1
1
1
1
1
1
1
1
1.0558e-07
4.50495e-08
2.93399e-08
2.08355e-08
1.67459e-08
1.41832e-08
1.22886e-08
1.0937e-08
1e-08
1e-08
1e-08
1e-08
1e-08
1e-08
1e-08
1e-08
1e-08
1e-08
1e-08
1e-08
1e-08
1e-08
1e-08
1e-08
1e-08
1e-08
1e-08
1e-08
1e-08
1e-08
1e-08
1e-08
1e-08
1e-08
1e-08
1e-08
1e-08
1e-08
1e-08
1e-08
1e-08
1e-08
1e-08
1e-08
1e-08
1
1
1
1e-08
1e-08
1e-08
1e-08
1e-08
1e-08
1e-08
1e-08
1e-08
1e-08
1e-08
1e-08
1e-08
1e-08
1.69398e-08
3.08651e-08
8.20857e-08
1
1
1
1
1
1
1
1
1
1
1
1
1
1
1
1
1
1
1
1
1
1
1
1
1
1
1
1
1
1
1
1
1
1
1
1
9.572e-08
4.22453e-08
2.82238e-08
1.99583e-08
1.63137e-08
1.38479e-08
1.20718e-08
1.0782e-08
1e-08
1e-08
1e-08
1e-08
1e-08
1e-08
1e-08
1e-08
1e-08
1e-08
1e-08
1e-08
1e-08
1e-08
1e-08
1e-08
1e-08
1e-08
1e-08
1e-08
1e-08
1e-08
1e-08
1e-08
1e-08
1e-08
1e-08
1e-08
1e-08
1e-08
1e-08
1e-08
1e-08
1e-08
1e-08
1e-08
1
1
1
1e-08
1e-08
1e-08
1e-08
1e-08
1e-08
1e-08
1e-08
1e-08
1e-08
1e-08
1e-08
1e-08
1.17193e-08
2.20314e-08
4.1745e-08
1.54003e-07
1
1
1
1
1
1
1
1
1
1
1
1
1
1
1
1
1
1
1
1
1
1
1
1
1
1
1
1
1
1
1
1
1
1
1
1
1
8.57613e-08
3.91316e-08
2.69038e-08
1.89432e-08
1.58274e-08
1.3489e-08
1.18374e-08
1.06028e-08
1e-08
1e-08
1e-08
1e-08
1e-08
1e-08
1e-08
1e-08
1e-08
1e-08
1e-08
1e-08
1e-08
1e-08
1e-08
1e-08
1e-08
1e-08
1e-08
1e-08
1e-08
1e-08
1e-08
1e-08
1e-08
1e-08
1e-08
1e-08
1e-08
1e-08
1e-08
1e-08
1e-08
1e-08
1e-08
1
1
1
1e-08
1e-08
1e-08
1e-08
1e-08
1e-08
1e-08
1e-08
1e-08
1e-08
1e-08
1e-08
1e-08
1.49878e-08
2.81995e-08
5.79457e-08
1
1
1
1
1
1
1
1
1
1
1
1
1
1
1
1
1
1
1
1
1
1
1
1
1
1
1
1
1
1
1
1
1
1
1
1
1
1
1
7.46153e-08
3.59391e-08
2.5394e-08
1.82376e-08
1.52929e-08
1.31178e-08
1.1579e-08
1.03916e-08
1e-08
1e-08
1e-08
1e-08
1e-08
1e-08
1e-08
1e-08
1e-08
1e-08
1e-08
1e-08
1e-08
1e-08
1e-08
1e-08
1e-08
1e-08
1e-08
1e-08
1e-08
1e-08
1e-08
1e-08
1e-08
1e-08
1e-08
1e-08
1e-08
1e-08
1e-08
1e-08
1e-08
1e-08
1
1
1
1e-08
1e-08
1e-08
1e-08
1e-08
1e-08
1e-08
1e-08
1e-08
1e-08
1e-08
1e-08
1.12548e-08
1.99115e-08
3.55112e-08
9.85447e-08
1
1
1
1
1
1
1
1
1
1
1
1
1
1
1
1
1
1
1
1
1
1
1
1
1
1
1
1
1
1
1
1
1
1
1
1
1
1
1
7.35626e-07
6.2413e-08
3.37779e-08
2.37058e-08
1.75113e-08
1.47352e-08
1.27426e-08
1.12995e-08
1.0146e-08
1e-08
1e-08
1e-08
1e-08
1e-08
1e-08
1e-08
1e-08
1e-08
1e-08
1e-08
1e-08
1e-08
1e-08
1e-08
1e-08
1e-08
1e-08
1e-08
1e-08
1e-08
1e-08
1e-08
1e-08
1e-08
1e-08
1e-08
1e-08
1e-08
1e-08
1e-08
1e-08
1e-08
1
1
1
1.01132e-08
1e-08
1e-08
1e-08
1e-08
1e-08
1e-08
1e-08
1e-08
1e-08
1e-08
1e-08
1.35066e-08
2.59623e-08
5.01124e-08
2.90963e-07
1
1
1
1
1
1
1
1
1
1
1
1
1
1
1
1
1
1
1
1
1
1
1
1
1
1
1
1
1
1
1
1
1
1
1
1
1
1
1
1
2.32552e-07
5.49623e-08
3.1374e-08
2.188e-08
1.67422e-08
1.4177e-08
1.23564e-08
1.09923e-08
1e-08
1e-08
1e-08
1e-08
1e-08
1e-08
1e-08
1e-08
1e-08
1e-08
1e-08
1e-08
1e-08
1e-08
1e-08
1e-08
1e-08
1e-08
1e-08
1e-08
1e-08
1e-08
1e-08
1e-08
1e-08
1e-08
1e-08
1e-08
1e-08
1e-08
1e-08
1e-08
1e-08
1
1
1
1.18896e-08
1e-08
1e-08
1e-08
1e-08
1e-08
1e-08
1e-08
1e-08
1e-08
1e-08
1.09593e-08
1.81739e-08
3.32241e-08
7.9607e-08
1
1
1
1
1
1
1
1
1
1
1
1
1
1
1
1
1
1
1
1
1
1
1
1
1
1
1
1
1
1
1
1
1
1
1
1
1
1
1
1
1
1
1.70422e-07
4.77891e-08
2.87788e-08
1.99816e-08
1.59579e-08
1.36297e-08
1.19553e-08
1.0652e-08
1e-08
1e-08
1e-08
1e-08
1e-08
1e-08
1e-08
1e-08
1e-08
1e-08
1e-08
1e-08
1e-08
1e-08
1e-08
1e-08
1e-08
1e-08
1e-08
1e-08
1e-08
1e-08
1e-08
1e-08
1e-08
1e-08
1e-08
1e-08
1e-08
1e-08
1e-08
1e-08
1
1
1
1.37334e-08
1e-08
1e-08
1e-08
1e-08
1e-08
1e-08
1e-08
1e-08
1e-08
1e-08
1.32648e-08
2.40586e-08
4.51685e-08
1.83786e-07
1
1
1
1
1
1
1
1
1
1
1
1
1
1
1
1
1
1
1
1
1
1
1
1
1
1
1
1
1
1
1
1
1
1
1
1
1
1
1
1
1
1
1
1.04609e-07
4.04387e-08
2.60725e-08
1.81095e-08
1.51904e-08
1.30918e-08
1.15349e-08
1.02773e-08
1e-08
1e-08
1e-08
1e-08
1e-08
1e-08
1e-08
1e-08
1e-08
1e-08
1e-08
1e-08
1e-08
1e-08
1e-08
1e-08
1e-08
1e-08
1e-08
1e-08
1e-08
1e-08
1e-08
1e-08
1e-08
1e-08
1e-08
1e-08
1e-08
1e-08
1e-08
1
1
1
1.72065e-08
1e-08
1e-08
1e-08
1e-08
1e-08
1e-08
1e-08
1e-08
1e-08
1.0784e-08
1.67126e-08
3.1202e-08
6.85332e-08
1
1
1
1
1
1
1
1
1
1
1
1
1
1.46533e-05
3.1973e-05
1
1
1
1
1
1
1
1
1
1
1
1
1
1
1
1
1
1
1
1
1
1
1
1
1
1
1
1
1
1
7.50599e-08
3.37796e-08
2.33456e-08
1.70832e-08
1.44553e-08
1.25534e-08
1.10866e-08
1e-08
1e-08
1e-08
1e-08
1e-08
1e-08
1e-08
1e-08
1e-08
1e-08
1e-08
1e-08
1e-08
1e-08
1e-08
1e-08
1e-08
1e-08
1e-08
1e-08
1e-08
1e-08
1e-08
1e-08
1e-08
1e-08
1e-08
1e-08
1e-08
1e-08
1e-08
1
1
1
2.51484e-08
1e-08
1e-08
1e-08
1e-08
1e-08
1e-08
1e-08
1e-08
1e-08
1.3127e-08
2.23944e-08
4.18033e-08
1.55374e-07
1
1
1
1
1
1
1
1
1
1
1
1
5.19262e-06
2.93864e-06
5.38331e-06
1.39414e-05
1
1
1
1
1
1
1
1
1
1
1
1
1
1
1
1
1
1
1
1
1
1
1
1
1
1
1
1
1
6.32888e-07
5.45511e-08
3.00396e-08
2.06997e-08
1.60991e-08
1.3753e-08
1.20063e-08
1.06092e-08
1e-08
1e-08
1e-08
1e-08
1e-08
1e-08
1e-08
1e-08
1e-08
1e-08
1e-08
1e-08
1e-08
1e-08
1e-08
1e-08
1e-08
1e-08
1e-08
1e-08
1e-08
1e-08
1e-08
1e-08
1e-08
1e-08
1e-08
1e-08
1e-08
1e-08
1
1
1
1.10032e-07
1e-08
1e-08
1e-08
1e-08
1e-08
1e-08
1e-08
1e-08
1.06782e-08
1.57938e-08
2.93789e-08
6.42121e-08
1
1
1
1
1
1
1
1
1
1
1
1
9.48824e-06
1.48004e-06
1.48361e-06
2.38115e-06
4.28074e-06
1.05791e-05
1
1
1
1
1
1
1
1
1
1
1
1
1
1
1
1
1
1
1
1
1
1
1
1
1
1
1
1
1
1.53047e-07
4.34398e-08
2.63831e-08
1.82331e-08
1.51767e-08
1.30701e-08
1.14413e-08
1.01038e-08
1e-08
1e-08
1e-08
1e-08
1e-08
1e-08
1e-08
1e-08
1e-08
1e-08
1e-08
1e-08
1e-08
1e-08
1e-08
1e-08
1e-08
1e-08
1e-08
1e-08
1e-08
1e-08
1e-08
1e-08
1e-08
1e-08
1e-08
1e-08
1e-08
1
1
1
1
1e-08
1e-08
1e-08
1e-08
1e-08
1e-08
1e-08
1e-08
1.30363e-08
2.09092e-08
3.9174e-08
1.38577e-07
1
1
1
1
1
1
1
1
1
1
1
1
1.21683e-06
8.1135e-07
1.01382e-06
1.3638e-06
2.16437e-06
3.6574e-06
8.86502e-06
1
1
1
1
1
1
1
1
1
1
1
1
1
1
1
1
1
1
1
1
1
1
1
1
1
1
1
1
1
8.04258e-08
3.35964e-08
2.2954e-08
1.6852e-08
1.43086e-08
1.23893e-08
1.08536e-08
1e-08
1e-08
1e-08
1e-08
1e-08
1e-08
1e-08
1e-08
1e-08
1e-08
1e-08
1e-08
1e-08
1e-08
1e-08
1e-08
1e-08
1e-08
1e-08
1e-08
1e-08
1e-08
1e-08
1e-08
1e-08
1e-08
1e-08
1e-08
1e-08
1
1
1
1
1e-08
1e-08
1e-08
1e-08
1e-08
1e-08
1e-08
1.05999e-08
1.57354e-08
2.77147e-08
6.15707e-08
1
1
1
1
1
1
1
1
1
1
1
1
1.28113e-06
6.22239e-07
5.90555e-07
6.87649e-07
9.45967e-07
1.31613e-06
2.02377e-06
3.4707e-06
8.34704e-06
1
1
1
1
1
1
1
1
1
1
1
1
1
1
1
1
1
1
1
1
1
1
1
1
1
1
1
1
8.63522e-07
5.23848e-08
2.88239e-08
1.98532e-08
1.57545e-08
1.34808e-08
1.17028e-08
1.02468e-08
1e-08
1e-08
1e-08
1e-08
1e-08
1e-08
1e-08
1e-08
1e-08
1e-08
1e-08
1e-08
1e-08
1e-08
1e-08
1e-08
1e-08
1e-08
1e-08
1e-08
1e-08
1e-08
1e-08
1e-08
1e-08
1e-08
1e-08
1e-08
1
1
1
1
1e-08
1e-08
1e-08
1e-08
1e-08
1e-08
1e-08
1.29475e-08
1.95664e-08
3.68402e-08
1.27392e-07
1
1
1
1
1
1
1
1
1
1
1
5.13118e-06
5.66626e-07
4.27784e-07
4.70611e-07
5.55354e-07
6.66047e-07
9.1477e-07
1.28709e-06
1.95338e-06
3.45188e-06
8.87513e-06
1
1
1
1
1
1
1
1
1
1
1
1
1
1
1
1
1
1
1
1
1
1
1
1
1
1
1
1
1.18683e-07
3.90793e-08
2.46423e-08
1.74172e-08
1.47323e-08
1.26661e-08
1.10019e-08
1e-08
1e-08
1e-08
1e-08
1e-08
1e-08
1e-08
1e-08
1e-08
1e-08
1e-08
1e-08
1e-08
1e-08
1e-08
1e-08
1e-08
1e-08
1e-08
1e-08
1e-08
1e-08
1e-08
1e-08
1e-08
1e-08
1e-08
1e-08
1
1
1
1
1e-08
1e-08
1e-08
1e-08
1e-08
1e-08
1.05323e-08
1.56567e-08
2.61892e-08
5.89866e-08
1
1
1
1
1
1
1
1
1
1
1
1
6.65535e-07
3.6695e-07
3.31733e-07
3.82364e-07
4.5321e-07
5.43666e-07
6.58064e-07
8.95343e-07
1.2756e-06
1.9593e-06
3.54816e-06
1.06641e-05
1
1
1
1
1
1
1
1
1
1
1
1
1
1
1
1
1
1
1
1
1
1
1
1
1
1
1
1
6.09676e-08
3.04535e-08
2.09734e-08
1.61607e-08
1.37604e-08
1.18539e-08
1.029e-08
1e-08
1e-08
1e-08
1e-08
1e-08
1e-08
1e-08
1e-08
1e-08
1e-08
1e-08
1e-08
1e-08
1e-08
1e-08
1e-08
1e-08
1e-08
1e-08
1e-08
1e-08
1e-08
1e-08
1e-08
1e-08
1e-08
1e-08
1
1
1
1
1e-08
1e-08
1e-08
1e-08
1e-08
1e-08
1.28503e-08
1.87497e-08
3.4391e-08
1.22133e-07
1
1
1
1
1
1
1
1
1
1
1
1.14242e-06
3.67439e-07
2.87508e-07
2.88116e-07
3.14651e-07
3.72627e-07
4.46089e-07
5.38322e-07
6.54948e-07
8.90214e-07
1.28488e-06
2.05001e-06
4.01189e-06
1.60623e-05
1
1
1
1
1
1
1
1
1
1
1
1
1
1
1
1
1
1
1
1
1
1
1
1
1
1
1
1.57144e-07
4.24282e-08
2.56288e-08
1.7833e-08
1.49973e-08
1.28142e-08
1.10403e-08
1e-08
1e-08
1e-08
1e-08
1e-08
1e-08
1e-08
1e-08
1e-08
1e-08
1e-08
1e-08
1e-08
1e-08
1e-08
1e-08
1e-08
1e-08
1e-08
1e-08
1e-08
1e-08
1e-08
1e-08
1e-08
1e-08
1e-08
1
1
1
1
1e-08
1e-08
1e-08
1e-08
1e-08
1.05069e-08
1.55569e-08
2.47399e-08
5.59845e-08
1
1
1
1
1
1
1
1
1
1
1
1
4.19577e-07
2.66905e-07
2.46691e-07
2.60263e-07
2.83023e-07
3.10821e-07
3.68862e-07
4.42737e-07
5.36945e-07
6.57818e-07
9.0132e-07
1.31829e-06
2.23564e-06
5.1013e-06
4.77874e-05
1
1
1
1
1
1
1
1
1
1
1
1
1
1
1
1
1
1
1
1
1
1
1
1
1
1
1
6.66703e-08
3.1164e-08
2.15105e-08
1.63857e-08
1.38911e-08
1.18814e-08
1.02261e-08
1e-08
1e-08
1e-08
1e-08
1e-08
1e-08
1e-08
1e-08
1e-08
1e-08
1e-08
1e-08
1e-08
1e-08
1e-08
1e-08
1e-08
1e-08
1e-08
1e-08
1e-08
1e-08
1e-08
1e-08
1e-08
1e-08
1
1
1
1
1e-08
1e-08
1e-08
1e-08
1e-08
1.28012e-08
1.86803e-08
3.26957e-08
1.15226e-07
1
1
1
1
1
1
1
1
1
1
1
6.77765e-07
2.72129e-07
2.20634e-07
2.23434e-07
2.38966e-07
2.59495e-07
2.83842e-07
3.11832e-07
3.67887e-07
4.43501e-07
5.41869e-07
6.69616e-07
9.36148e-07
1.39561e-06
2.57527e-06
8.35403e-06
1
1
1
1
1
1
1
1
1
1
1
1
1
1
1
1
1
1
1
1
1
1
1
1