# vtk DataFile Version 4.1
vtk output
ASCII
DATASET UNSTRUCTURED_GRID

POINTS	7401	float
0	0	0.0	
0	1	0.0	
0	2	0.0	
0	3	0.0	
0	4	0.0	
0	5	0.0	
0	6	0.0	
0	7	0.0	
0	8	0.0	
0	9	0.0	
0	10	0.0	
0	11	0.0	
0	12	0.0	
0	13	0.0	
0	14	0.0	
0	15	0.0	
0	16	0.0	
0	17	0.0	
0	18	0.0	
0	19	0.0	
0	20	0.0	
0	21	0.0	
0	22	0.0	
0	23	0.0	
0	24	0.0	
0	25	0.0	
0	26	0.0	
0	27	0.0	
0	28	0.0	
0	29	0.0	
0	30	0.0	
0	31	0.0	
0	32	0.0	
0	33	0.0	
0	34	0.0	
0	35	0.0	
0	36	0.0	
0	37	0.0	
0	38	0.0	
0	39	0.0	
0	40	0.0	
1	0	0.0	
1	1	0.0	
1	2	0.0	
1	3	0.0	
1	4	0.0	
1	5	0.0	
1	6	0.0	
1	7	0.0	
1	8	0.0	
1	9	0.0	
1	10	0.0	
1	11	0.0	
1	12	0.0	
1	13	0.0	
1	14	0.0	
1	15	0.0	
1	16	0.0	
1	17	0.0	
1	18	0.0	
1	19	0.0	
1	20	0.0	
1	21	0.0	
1	22	0.0	
1	23	0.0	
1	24	0.0	
1	25	0.0	
1	26	0.0	
1	27	0.0	
1	28	0.0	
1	29	0.0	
1	30	0.0	
1	31	0.0	
1	32	0.0	
1	33	0.0	
1	34	0.0	
1	35	0.0	
1	36	0.0	
1	37	0.0	
1	38	0.0	
1	39	0.0	
1	40	0.0	
2	0	0.0	
2	1	0.0	
2	2	0.0	
2	3	0.0	
2	4	0.0	
2	5	0.0	
2	6	0.0	
2	7	0.0	
2	8	0.0	
2	9	0.0	
2	10	0.0	
2	11	0.0	
2	12	0.0	
2	13	0.0	
2	14	0.0	
2	15	0.0	
2	16	0.0	
2	17	0.0	
2	18	0.0	
2	19	0.0	
2	20	0.0	
2	21	0.0	
2	22	0.0	
2	23	0.0	
2	24	0.0	
2	25	0.0	
2	26	0.0	
2	27	0.0	
2	28	0.0	
2	29	0.0	
2	30	0.0	
2	31	0.0	
2	32	0.0	
2	33	0.0	
2	34	0.0	
2	35	0.0	
2	36	0.0	
2	37	0.0	
2	38	0.0	
2	39	0.0	
2	40	0.0	
3	0	0.0	
3	1	0.0	
3	2	0.0	
3	3	0.0	
3	4	0.0	
3	5	0.0	
3	6	0.0	
3	7	0.0	
3	8	0.0	
3	9	0.0	
3	10	0.0	
3	11	0.0	
3	12	0.0	
3	13	0.0	
3	14	0.0	
3	15	0.0	
3	16	0.0	
3	17	0.0	
3	18	0.0	
3	19	0.0	
3	20	0.0	
3	21	0.0	
3	22	0.0	
3	23	0.0	
3	24	0.0	
3	25	0.0	
3	26	0.0	
3	27	0.0	
3	28	0.0	
3	29	0.0	
3	30	0.0	
3	31	0.0	
3	32	0.0	
3	33	0.0	
3	34	0.0	
3	35	0.0	
3	36	0.0	
3	37	0.0	
3	38	0.0	
3	39	0.0	
3	40	0.0	
4	0	0.0	
4	1	0.0	
4	2	0.0	
4	3	0.0	
4	4	0.0	
4	5	0.0	
4	6	0.0	
4	7	0.0	
4	8	0.0	
4	9	0.0	
4	10	0.0	
4	11	0.0	
4	12	0.0	
4	13	0.0	
4	14	0.0	
4	15	0.0	
4	16	0.0	
4	17	0.0	
4	18	0.0	
4	19	0.0	
4	20	0.0	
4	21	0.0	
4	22	0.0	
4	23	0.0	
4	24	0.0	
4	25	0.0	
4	26	0.0	
4	27	0.0	
4	28	0.0	
4	29	0.0	
4	30	0.0	
4	31	0.0	
4	32	0.0	
4	33	0.0	
4	34	0.0	
4	35	0.0	
4	36	0.0	
4	37	0.0	
4	38	0.0	
4	39	0.0	
4	40	0.0	
5	0	0.0	
5	1	0.0	
5	2	0.0	
5	3	0.0	
5	4	0.0	
5	5	0.0	
5	6	0.0	
5	7	0.0	
5	8	0.0	
5	9	0.0	
5	10	0.0	
5	11	0.0	
5	12	0.0	
5	13	0.0	
5	14	0.0	
5	15	0.0	
5	16	0.0	
5	17	0.0	
5	18	0.0	
5	19	0.0	
5	20	0.0	
5	21	0.0	
5	22	0.0	
5	23	0.0	
5	24	0.0	
5	25	0.0	
5	26	0.0	
5	27	0.0	
5	28	0.0	
5	29	0.0	
5	30	0.0	
5	31	0.0	
5	32	0.0	
5	33	0.0	
5	34	0.0	
5	35	0.0	
5	36	0.0	
5	37	0.0	
5	38	0.0	
5	39	0.0	
5	40	0.0	
6	0	0.0	
6	1	0.0	
6	2	0.0	
6	3	0.0	
6	4	0.0	
6	5	0.0	
6	6	0.0	
6	7	0.0	
6	8	0.0	
6	9	0.0	
6	10	0.0	
6	11	0.0	
6	12	0.0	
6	13	0.0	
6	14	0.0	
6	15	0.0	
6	16	0.0	
6	17	0.0	
6	18	0.0	
6	19	0.0	
6	20	0.0	
6	21	0.0	
6	22	0.0	
6	23	0.0	
6	24	0.0	
6	25	0.0	
6	26	0.0	
6	27	0.0	
6	28	0.0	
6	29	0.0	
6	30	0.0	
6	31	0.0	
6	32	0.0	
6	33	0.0	
6	34	0.0	
6	35	0.0	
6	36	0.0	
6	37	0.0	
6	38	0.0	
6	39	0.0	
6	40	0.0	
7	0	0.0	
7	1	0.0	
7	2	0.0	
7	3	0.0	
7	4	0.0	
7	5	0.0	
7	6	0.0	
7	7	0.0	
7	8	0.0	
7	9	0.0	
7	10	0.0	
7	11	0.0	
7	12	0.0	
7	13	0.0	
7	14	0.0	
7	15	0.0	
7	16	0.0	
7	17	0.0	
7	18	0.0	
7	19	0.0	
7	20	0.0	
7	21	0.0	
7	22	0.0	
7	23	0.0	
7	24	0.0	
7	25	0.0	
7	26	0.0	
7	27	0.0	
7	28	0.0	
7	29	0.0	
7	30	0.0	
7	31	0.0	
7	32	0.0	
7	33	0.0	
7	34	0.0	
7	35	0.0	
7	36	0.0	
7	37	0.0	
7	38	0.0	
7	39	0.0	
7	40	0.0	
8	0	0.0	
8	1	0.0	
8	2	0.0	
8	3	0.0	
8	4	0.0	
8	5	0.0	
8	6	0.0	
8	7	0.0	
8	8	0.0	
8	9	0.0	
8	10	0.0	
8	11	0.0	
8	12	0.0	
8	13	0.0	
8	14	0.0	
8	15	0.0	
8	16	0.0	
8	17	0.0	
8	18	0.0	
8	19	0.0	
8	20	0.0	
8	21	0.0	
8	22	0.0	
8	23	0.0	
8	24	0.0	
8	25	0.0	
8	26	0.0	
8	27	0.0	
8	28	0.0	
8	29	0.0	
8	30	0.0	
8	31	0.0	
8	32	0.0	
8	33	0.0	
8	34	0.0	
8	35	0.0	
8	36	0.0	
8	37	0.0	
8	38	0.0	
8	39	0.0	
8	40	0.0	
9	0	0.0	
9	1	0.0	
9	2	0.0	
9	3	0.0	
9	4	0.0	
9	5	0.0	
9	6	0.0	
9	7	0.0	
9	8	0.0	
9	9	0.0	
9	10	0.0	
9	11	0.0	
9	12	0.0	
9	13	0.0	
9	14	0.0	
9	15	0.0	
9	16	0.0	
9	17	0.0	
9	18	0.0	
9	19	0.0	
9	20	0.0	
9	21	0.0	
9	22	0.0	
9	23	0.0	
9	24	0.0	
9	25	0.0	
9	26	0.0	
9	27	0.0	
9	28	0.0	
9	29	0.0	
9	30	0.0	
9	31	0.0	
9	32	0.0	
9	33	0.0	
9	34	0.0	
9	35	0.0	
9	36	0.0	
9	37	0.0	
9	38	0.0	
9	39	0.0	
9	40	0.0	
10	0	0.0	
10	1	0.0	
10	2	0.0	
10	3	0.0	
10	4	0.0	
10	5	0.0	
10	6	0.0	
10	7	0.0	
10	8	0.0	
10	9	0.0	
10	10	0.0	
10	11	0.0	
10	12	0.0	
10	13	0.0	
10	14	0.0	
10	15	0.0	
10	16	0.0	
10	17	0.0	
10	18	0.0	
10	19	0.0	
10	20	0.0	
10	21	0.0	
10	22	0.0	
10	23	0.0	
10	24	0.0	
10	25	0.0	
10	26	0.0	
10	27	0.0	
10	28	0.0	
10	29	0.0	
10	30	0.0	
10	31	0.0	
10	32	0.0	
10	33	0.0	
10	34	0.0	
10	35	0.0	
10	36	0.0	
10	37	0.0	
10	38	0.0	
10	39	0.0	
10	40	0.0	
11	0	0.0	
11	1	0.0	
11	2	0.0	
11	3	0.0	
11	4	0.0	
11	5	0.0	
11	6	0.0	
11	7	0.0	
11	8	0.0	
11	9	0.0	
11	10	0.0	
11	11	0.0	
11	12	0.0	
11	13	0.0	
11	14	0.0	
11	15	0.0	
11	16	0.0	
11	17	0.0	
11	18	0.0	
11	19	0.0	
11	20	0.0	
11	21	0.0	
11	22	0.0	
11	23	0.0	
11	24	0.0	
11	25	0.0	
11	26	0.0	
11	27	0.0	
11	28	0.0	
11	29	0.0	
11	30	0.0	
11	31	0.0	
11	32	0.0	
11	33	0.0	
11	34	0.0	
11	35	0.0	
11	36	0.0	
11	37	0.0	
11	38	0.0	
11	39	0.0	
11	40	0.0	
12	0	0.0	
12	1	0.0	
12	2	0.0	
12	3	0.0	
12	4	0.0	
12	5	0.0	
12	6	0.0	
12	7	0.0	
12	8	0.0	
12	9	0.0	
12	10	0.0	
12	11	0.0	
12	12	0.0	
12	13	0.0	
12	14	0.0	
12	15	0.0	
12	16	0.0	
12	17	0.0	
12	18	0.0	
12	19	0.0	
12	20	0.0	
12	21	0.0	
12	22	0.0	
12	23	0.0	
12	24	0.0	
12	25	0.0	
12	26	0.0	
12	27	0.0	
12	28	0.0	
12	29	0.0	
12	30	0.0	
12	31	0.0	
12	32	0.0	
12	33	0.0	
12	34	0.0	
12	35	0.0	
12	36	0.0	
12	37	0.0	
12	38	0.0	
12	39	0.0	
12	40	0.0	
13	0	0.0	
13	1	0.0	
13	2	0.0	
13	3	0.0	
13	4	0.0	
13	5	0.0	
13	6	0.0	
13	7	0.0	
13	8	0.0	
13	9	0.0	
13	10	0.0	
13	11	0.0	
13	12	0.0	
13	13	0.0	
13	14	0.0	
13	15	0.0	
13	16	0.0	
13	17	0.0	
13	18	0.0	
13	19	0.0	
13	20	0.0	
13	21	0.0	
13	22	0.0	
13	23	0.0	
13	24	0.0	
13	25	0.0	
13	26	0.0	
13	27	0.0	
13	28	0.0	
13	29	0.0	
13	30	0.0	
13	31	0.0	
13	32	0.0	
13	33	0.0	
13	34	0.0	
13	35	0.0	
13	36	0.0	
13	37	0.0	
13	38	0.0	
13	39	0.0	
13	40	0.0	
14	0	0.0	
14	1	0.0	
14	2	0.0	
14	3	0.0	
14	4	0.0	
14	5	0.0	
14	6	0.0	
14	7	0.0	
14	8	0.0	
14	9	0.0	
14	10	0.0	
14	11	0.0	
14	12	0.0	
14	13	0.0	
14	14	0.0	
14	15	0.0	
14	16	0.0	
14	17	0.0	
14	18	0.0	
14	19	0.0	
14	20	0.0	
14	21	0.0	
14	22	0.0	
14	23	0.0	
14	24	0.0	
14	25	0.0	
14	26	0.0	
14	27	0.0	
14	28	0.0	
14	29	0.0	
14	30	0.0	
14	31	0.0	
14	32	0.0	
14	33	0.0	
14	34	0.0	
14	35	0.0	
14	36	0.0	
14	37	0.0	
14	38	0.0	
14	39	0.0	
14	40	0.0	
15	0	0.0	
15	1	0.0	
15	2	0.0	
15	3	0.0	
15	4	0.0	
15	5	0.0	
15	6	0.0	
15	7	0.0	
15	8	0.0	
15	9	0.0	
15	10	0.0	
15	11	0.0	
15	12	0.0	
15	13	0.0	
15	14	0.0	
15	15	0.0	
15	16	0.0	
15	17	0.0	
15	18	0.0	
15	19	0.0	
15	20	0.0	
15	21	0.0	
15	22	0.0	
15	23	0.0	
15	24	0.0	
15	25	0.0	
15	26	0.0	
15	27	0.0	
15	28	0.0	
15	29	0.0	
15	30	0.0	
15	31	0.0	
15	32	0.0	
15	33	0.0	
15	34	0.0	
15	35	0.0	
15	36	0.0	
15	37	0.0	
15	38	0.0	
15	39	0.0	
15	40	0.0	
16	0	0.0	
16	1	0.0	
16	2	0.0	
16	3	0.0	
16	4	0.0	
16	5	0.0	
16	6	0.0	
16	7	0.0	
16	8	0.0	
16	9	0.0	
16	10	0.0	
16	11	0.0	
16	12	0.0	
16	13	0.0	
16	14	0.0	
16	15	0.0	
16	16	0.0	
16	17	0.0	
16	18	0.0	
16	19	0.0	
16	20	0.0	
16	21	0.0	
16	22	0.0	
16	23	0.0	
16	24	0.0	
16	25	0.0	
16	26	0.0	
16	27	0.0	
16	28	0.0	
16	29	0.0	
16	30	0.0	
16	31	0.0	
16	32	0.0	
16	33	0.0	
16	34	0.0	
16	35	0.0	
16	36	0.0	
16	37	0.0	
16	38	0.0	
16	39	0.0	
16	40	0.0	
17	0	0.0	
17	1	0.0	
17	2	0.0	
17	3	0.0	
17	4	0.0	
17	5	0.0	
17	6	0.0	
17	7	0.0	
17	8	0.0	
17	9	0.0	
17	10	0.0	
17	11	0.0	
17	12	0.0	
17	13	0.0	
17	14	0.0	
17	15	0.0	
17	16	0.0	
17	17	0.0	
17	18	0.0	
17	19	0.0	
17	20	0.0	
17	21	0.0	
17	22	0.0	
17	23	0.0	
17	24	0.0	
17	25	0.0	
17	26	0.0	
17	27	0.0	
17	28	0.0	
17	29	0.0	
17	30	0.0	
17	31	0.0	
17	32	0.0	
17	33	0.0	
17	34	0.0	
17	35	0.0	
17	36	0.0	
17	37	0.0	
17	38	0.0	
17	39	0.0	
17	40	0.0	
18	0	0.0	
18	1	0.0	
18	2	0.0	
18	3	0.0	
18	4	0.0	
18	5	0.0	
18	6	0.0	
18	7	0.0	
18	8	0.0	
18	9	0.0	
18	10	0.0	
18	11	0.0	
18	12	0.0	
18	13	0.0	
18	14	0.0	
18	15	0.0	
18	16	0.0	
18	17	0.0	
18	18	0.0	
18	19	0.0	
18	20	0.0	
18	21	0.0	
18	22	0.0	
18	23	0.0	
18	24	0.0	
18	25	0.0	
18	26	0.0	
18	27	0.0	
18	28	0.0	
18	29	0.0	
18	30	0.0	
18	31	0.0	
18	32	0.0	
18	33	0.0	
18	34	0.0	
18	35	0.0	
18	36	0.0	
18	37	0.0	
18	38	0.0	
18	39	0.0	
18	40	0.0	
19	0	0.0	
19	1	0.0	
19	2	0.0	
19	3	0.0	
19	4	0.0	
19	5	0.0	
19	6	0.0	
19	7	0.0	
19	8	0.0	
19	9	0.0	
19	10	0.0	
19	11	0.0	
19	12	0.0	
19	13	0.0	
19	14	0.0	
19	15	0.0	
19	16	0.0	
19	17	0.0	
19	18	0.0	
19	19	0.0	
19	20	0.0	
19	21	0.0	
19	22	0.0	
19	23	0.0	
19	24	0.0	
19	25	0.0	
19	26	0.0	
19	27	0.0	
19	28	0.0	
19	29	0.0	
19	30	0.0	
19	31	0.0	
19	32	0.0	
19	33	0.0	
19	34	0.0	
19	35	0.0	
19	36	0.0	
19	37	0.0	
19	38	0.0	
19	39	0.0	
19	40	0.0	
20	0	0.0	
20	1	0.0	
20	2	0.0	
20	3	0.0	
20	4	0.0	
20	5	0.0	
20	6	0.0	
20	7	0.0	
20	8	0.0	
20	9	0.0	
20	10	0.0	
20	11	0.0	
20	12	0.0	
20	13	0.0	
20	14	0.0	
20	15	0.0	
20	16	0.0	
20	17	0.0	
20	18	0.0	
20	19	0.0	
20	20	0.0	
20	21	0.0	
20	22	0.0	
20	23	0.0	
20	24	0.0	
20	25	0.0	
20	26	0.0	
20	27	0.0	
20	28	0.0	
20	29	0.0	
20	30	0.0	
20	31	0.0	
20	32	0.0	
20	33	0.0	
20	34	0.0	
20	35	0.0	
20	36	0.0	
20	37	0.0	
20	38	0.0	
20	39	0.0	
20	40	0.0	
21	0	0.0	
21	1	0.0	
21	2	0.0	
21	3	0.0	
21	4	0.0	
21	5	0.0	
21	6	0.0	
21	7	0.0	
21	8	0.0	
21	9	0.0	
21	10	0.0	
21	11	0.0	
21	12	0.0	
21	13	0.0	
21	14	0.0	
21	15	0.0	
21	16	0.0	
21	17	0.0	
21	18	0.0	
21	19	0.0	
21	20	0.0	
21	21	0.0	
21	22	0.0	
21	23	0.0	
21	24	0.0	
21	25	0.0	
21	26	0.0	
21	27	0.0	
21	28	0.0	
21	29	0.0	
21	30	0.0	
21	31	0.0	
21	32	0.0	
21	33	0.0	
21	34	0.0	
21	35	0.0	
21	36	0.0	
21	37	0.0	
21	38	0.0	
21	39	0.0	
21	40	0.0	
22	0	0.0	
22	1	0.0	
22	2	0.0	
22	3	0.0	
22	4	0.0	
22	5	0.0	
22	6	0.0	
22	7	0.0	
22	8	0.0	
22	9	0.0	
22	10	0.0	
22	11	0.0	
22	12	0.0	
22	13	0.0	
22	14	0.0	
22	15	0.0	
22	16	0.0	
22	17	0.0	
22	18	0.0	
22	19	0.0	
22	20	0.0	
22	21	0.0	
22	22	0.0	
22	23	0.0	
22	24	0.0	
22	25	0.0	
22	26	0.0	
22	27	0.0	
22	28	0.0	
22	29	0.0	
22	30	0.0	
22	31	0.0	
22	32	0.0	
22	33	0.0	
22	34	0.0	
22	35	0.0	
22	36	0.0	
22	37	0.0	
22	38	0.0	
22	39	0.0	
22	40	0.0	
23	0	0.0	
23	1	0.0	
23	2	0.0	
23	3	0.0	
23	4	0.0	
23	5	0.0	
23	6	0.0	
23	7	0.0	
23	8	0.0	
23	9	0.0	
23	10	0.0	
23	11	0.0	
23	12	0.0	
23	13	0.0	
23	14	0.0	
23	15	0.0	
23	16	0.0	
[...]
CELL_DATA	2400
SCALARS Rho0 float
LOOKUP_TABLE default
1
1
1
1
1
1e-10
1e-10
1e-10
1e-10
1e-10
1e-10
1e-10
1e-10
1e-10
1e-10
1e-10
1e-10
1e-10
1e-10
1e-10
1e-10
1e-10
1e-10
1e-10
1e-10
1e-10
1e-10
1e-10
1e-10
1e-10
1e-10
1e-10
1e-10
1e-10
1e-10
1
1
1
1
1
1
1
1
1
1
1e-10
1e-10
1e-10
1e-10
1e-10
1e-10
1e-10
1e-10
1e-10
1e-10
1e-10
1e-10
1e-10
1e-10
1e-10
1e-10
1e-10
1e-10
1e-10
1e-10
1e-10
1e-10
1e-10
1e-10
1e-10
1e-10
1e-10
1e-10
1e-10
1e-10
1
1
1
1
1
1
1
1
1
1
1
1e-10
1e-10
1e-10
1e-10
1e-10
1e-10
1e-10
1e-10
1e-10
1e-10
1e-10
1e-10
1e-10
1e-10
1e-10
1e-10
1e-10
1e-10
1e-10
1e-10
1e-10
1e-10
1e-10
1e-10
1e-10
1e-10
1e-10
1e-10
1
1
1
1
1
1
1
1
1
1
1
1
1e-10
1e-10
1e-10
1e-10
1e-10
1e-10
1e-10
1e-10
1e-10
1e-10
1e-10
1e-10
1e-10
1e-10
1e-10
1e-10
1e-10
1e-10
1e-10
1e-10
1e-10
1e-10
1e-10
1e-10
1e-10
1e-10
1e-10
1e-10
1
1
1
1
1
1
1
1
1
1
1
1
1
1e-10
1e-10
1e-10
1e-10
1e-10
1e-10
1e-10
1e-10
1e-10
1e-10
1e-10
1e-10
1e-10
1e-10
1e-10
1e-10
1e-10
1e-10
1e-10
1e-10
1e-10
1e-10
1e-10
1e-10
1e-10
1e-10
1
1
1
1
1
1
1
1
1
1
1
1
1
1
1
1e-10
1e-10
1e-10
1e-10
1e-10
1e-10
1e-10
1e-10
1e-10
1e-10
1e-10
1e-10
1e-10
1e-10
1e-10
1e-10
1e-10
1e-10
1e-10
1e-10
1e-10
1e-10
1e-10
1e-10
1
1
1
1
1
1
1
1
1
1
1
1
1
1
1
1
1
1e-10
1e-10
1e-10
1e-10
1e-10
1e-10
1e-10
1e-10
1e-10
1e-10
1e-10
1e-10
1e-10
1e-10
1e-10
1e-10
1e-10
1e-10
1e-10
1e-10
1e-10
1e-10
1
1
1
1
1
1
1
1
1
1
1
1
1
1
1
1
1
1
1
1e-10
1e-10
1e-10
1e-10
1e-10
1e-10
1e-10
1e-10
1e-10
1e-10
1e-10
1e-10
1e-10
1e-10
1e-10
1e-10
1e-10
1e-10
1e-10
1e-10
1
1
1
1
1
1
1
1
1
1
1
1
1
1
1
1
1
1
1
1
1
1e-10
1e-10
1e-10
1e-10
1e-10
1e-10
1e-10
1e-10
1e-10
1e-10
1e-10
1e-10
1e-10
1e-10
1e-10
1e-10
1e-10
1e-10
1
1
1
1
1
1
1
1
1
1
1
1
1
1
1
1e-10
1
1
1
1
1
1
1
1e-10
1e-10
1e-10
1e-10
1e-10
1e-10
1e-10
1e-10
1e-10
1e-10
1e-10
1e-10
1e-10
1e-10
1e-10
1e-10
1
1
1
1
1
1
1
1e-10
1
1
1
1
1
1
1
1
1e-10
1e-10
1
1
1
1
1
1
1e-10
1e-10
1e-10
1e-10
1e-10
1e-10
1e-10
1e-10
1e-10
1e-10
1e-10
1e-10
1e-10
1e-10
1e-10
1e-10
1
1
1
1
1
1
1e-10
1e-10
1
1
1
1
1
1
1
1
1e-10
1e-10
1
1
1
1
1
1
1
1e-10
1e-10
1e-10
1e-10
1e-10
1e-10
1e-10
1e-10
1e-10
1e-10
1e-10
1e-10
1e-10
1e-10
1
1
1
1
1
1
1
1e-10
1e-10
1
1
1
1
1
1
1
1
1e-10
1e-10
1e-10
1
1
1
1
1
1
1
1e-10
1e-10
1e-10
1e-10
1e-10
1e-10
1e-10
1e-10
1e-10
1e-10
1e-10
1e-10
1
1
1
1
1
1
1
1e-10
1e-10
1e-10
1
1
1
1
1
1
1
1
1e-10
1e-10
1e-10
1e-10
1
1
1
1
1
1
1e-10
1e-10
1e-10
1e-10
1e-10
1e-10
1e-10
1e-10
1e-10
1e-10
1e-10
1e-10
1
1
1
1
1
1
1e-10
1e-10
1e-10
1e-10
1
1
1
1
1
1
1
1
1e-10
1e-10
1e-10
1e-10
1
1
1
1
1
1
1
1e-10
1e-10
1e-10
1e-10
1e-10
1e-10
1e-10
1e-10
1e-10
1e-10
1
1
1
1
1
1
1
1e-10
1e-10
1e-10
1e-10
1
1
1
1
1
1
1
1
1e-10
1e-10
1e-10
1e-10
1e-10
1
1
1
1
1
1
1
1e-10
1e-10
1e-10
1e-10
1e-10
1e-10
1e-10
1e-10
1
1
1
1
1
1
1
1e-10
1e-10
1e-10
1e-10
1e-10
1
1
1
1
1
1
1
1
1e-10
1e-10
1e-10
1e-10
1e-10
1
1
1
1
1
1
1
1
1e-10
1e-10
1e-10
1e-10
1e-10
1e-10
1
1
1
1
1
1
1
1
1e-10
1e-10
1e-10
1e-10
1e-10
1
1
1
1
1
1
1
1
1e-10
1e-10
1e-10
1e-10
1e-10
1e-10
1
1
1
1
1
1
1
1
1e-10
1e-10
1e-10
1e-10
1
1
1
1
1
1
1
1
1e-10
1e-10
1e-10
1e-10
1e-10
1e-10
1
1
1
1
1
1
1
1
1e-10
1e-10
1e-10
1e-10
1e-10
1e-10
1e-10
1
1
1
1
1
1
1
1
1e-10
1e-10
1
1
1
1
1
1
1
1
1e-10
1e-10
1e-10
1e-10
1e-10
1e-10
1e-10
1
1
1
1
1
1
1
1
1
1e-10
1e-10
1e-10
1e-10
1e-10
1e-10
1
1
1
1
1
1
1
1
1
1
1
1
1
1
1
1
1
1
1e-10
1e-10
1e-10
1e-10
1e-10
1e-10
1
1
1
1
1
1
1
1
1
1
1e-10
1e-10
1e-10
1e-10
1e-10
1e-10
1
1
1
1
1
1
1
1
1
1
1
1
1
1
1
1
1
1
1e-10
1e-10
1e-10
1e-10
1e-10
1e-10
1
1
1
1
1
1
1
1
1
1
1e-10
1e-10
1e-10
1e-10
1e-10
1e-10
1e-10
1
1
1
1
1
1
1
1
1
1
1
1
1
1
1
1
1e-10
1e-10
1e-10
1e-10
1e-10
1e-10
1e-10
1
1
1
1
1
1
1
1
1
1
1e-10
1e-10
1e-10
1e-10
1e-10
1e-10
1e-10
1
1
1
1
1
1
1
1
1
1
1
1
1
1
1
1
1e-10
1e-10
1e-10
1e-10
1e-10
1e-10
1e-10
1
1
1
1
1
1
1
1
1
1
1e-10
1e-10
1e-10
1e-10
1e-10
1e-10
1e-10
1
1
1
1
1
1
1
1
1
1
1
1
1
1
1
1
1e-10
1e-10
1e-10
1e-10
1e-10
1e-10
1e-10
1
1
1
1
1
1
1
1
1
1
1e-10
1e-10
1e-10
1e-10
1e-10
1e-10
1e-10
1
1
1
1
1
1
1
1
1
1
1
1
1
1
1
1
1e-10
1e-10
1e-10
1e-10
1e-10
1e-10
1e-10
1
1
1
1
1
1
1
1
1
1
1
1e-10
1e-10
1e-10
1e-10
1e-10
1e-10
1e-10
1
1
1
1
1
1
1
1
1
1
1
1
1
1
1e-10
1e-10
1e-10
1e-10
1e-10
1e-10
1e-10
1
1
1
1
1
1
1
1
1
1
1
1
1e-10
1e-10
1e-10
1e-10
1e-10
1e-10
1e-10
1
1
1
1
1
1
1
1
1
1
1
1
1
1
1e-10
1e-10
1e-10
1e-10
1e-10
1e-10
1e-10
1
1
1
1
1
1
1
1
1
1
1
1
1e-10
1e-10
1e-10
1e-10
1e-10
1e-10
1
1
1
1
1
1
1
1
1
1
1
1
1
1
1
1
1e-10
1e-10
1e-10
1e-10
1e-10
1e-10
1
1
1
1
1
1
1
1
1
1
1
1
1e-10
1e-10
1e-10
1
1
1
1
1
1
1
1
1
1
1
1
1
1
1
1
1
1
1
1
1
1
1e-10
1e-10
1e-10
1
1
1
1
1
1
1
1
1
1
1
1
1
1
1
1
1
1
1
1
1
1
1
1
1
1
1
1
1
1
1
1
1
1
1
1
1
1
1
1
1
1
1
1
1
1
1
1
1
1
1
1
1
1
1
1
1
1
0.798825
0.805078
1
1e-10
1
1
1
1
1
1
1
1
1e-10
1
0.805013
0.7983
1
1
1
1
1
1
1
1
1
1
1
1
1
1
1
1
1
1
1
1
1
1
1e-10
1e-10
1e-10
1e-10
1
1
1
1
1
1
1
1
1
1
1
1
1e-10
1e-10
1e-10
1e-10
1
1
1
1
1
1
1
1
1
1
1
1
1
1
1
1
1
1
0.906278
1e-10
1e-10
1e-10
1e-10
1
1
1
1
1
1
1e-10
1e-10
1
1
1
1
1
1
1e-10
1e-10
1e-10
1e-10
0.90667
1
1
1
1
1
1
1
1
1
1
1
1
1
1
1
1
1e-10
1e-10
1e-10
1e-10
1
1
1
1
1
1e-10
1e-10
1e-10
1e-10
1e-10
1e-10
1
1
1
1
1
1e-10
1e-10
1e-10
1e-10
1
1
1
1
1
1
1
1
1e-10
1
1
1
1
1
1
1
1e-10
1e-10
0.768316
1
1
1
1
1
0.62969
1e-10
1e-10
1e-10
1e-10
1e-10
1e-10
0.630633
1
1
1
1
1
0.767974
1e-10
1e-10
1
1
1
1
1
1
1
1e-10
1e-10
1
1
1
1
1
1
1
1e-10
1
1
1
1
1e-10
1e-10
1
1
1e-10
1e-10
1e-10
1e-10
1e-10
1e-10
1
1
1e-10
1e-10
1
1
1
1
1e-10
1
1
1
1
1
1
1
1e-10
1e-10
1
1
1
1
1
1
1
1
1
1
0.956449
1e-10
1e-10
1e-10
1e-10
1
1
1e-10
1e-10
1e-10
1e-10
1
1
1e-10
1e-10
1e-10
1e-10
0.958219
1
1
1
1
1
1
1
1
1
1
1e-10
1e-10
1e-10
1
1
1
1
1
1
1
1
0.792836
1e-10
1e-10
1e-10
1e-10
1e-10
1e-10
1
1
1e-10
1e-10
1
1
1e-10
1e-10
1e-10
1e-10
1e-10
1e-10
0.792516
1
1
1
1
1
1
1
1
1e-10
1e-10
1e-10
1e-10
1
1
1
1
1
1
1
1e-10
1e-10
1e-10
1e-10
1e-10
1e-10
1e-10
1e-10
1e-10
1
1
1
1
1e-10
1e-10
1e-10
1e-10
1e-10
1e-10
1e-10
1e-10
1e-10
1
1
1
1
1
1
1
1e-10
1e-10
1e-10
1e-10
1e-10
1
1
1
1
1
1
1e-10
1e-10
1e-10
1e-10
1e-10
1e-10
1e-10
1e-10
1e-10
0.655037
1
1
0.6566
1e-10
1e-10
1e-10
1e-10
1e-10
1e-10
1e-10
1e-10
1e-10
1
1
1
1
1
1
1e-10
1e-10
1e-10
1e-10
1e-10
1e-10
1
1
1
1
1
1
1e-10
1e-10
1e-10
1e-10
1e-10
1e-10
1e-10
1e-10
1e-10
0.9191
1
1
0.919538
1e-10
1e-10
1e-10
1e-10
1e-10
1e-10
1e-10
1e-10
1e-10
1
1
1
1
1
1
1e-10
1e-10
1e-10
1e-10
1e-10
1e-10
1e-10
1
1
1
1
1
1
1e-10
1e-10
1e-10
1e-10
1e-10
1e-10
1e-10
1
1
1e-10
1e-10
1
1
1e-10
1e-10
1e-10
1e-10
1e-10
1e-10
1e-10
1
1
1
1
1
1
1e-10
1e-10
1e-10
1e-10
1e-10
1e-10
1e-10
1e-10
1
1
1
1
1
1
1e-10
1e-10
1e-10
1e-10
1e-10
1e-10
1
1
1e-10
1e-10
1e-10
1e-10
1
1
1e-10
1e-10
1e-10
1e-10
1e-10
1e-10
1
1
1
1
1
1
1e-10
1e-10
1e-10
1e-10
1e-10
1e-10
1e-10
1e-10
1e-10
1
1
1
1
1
1
1
1e-10
1e-10
1
1
0.852361
1e-10
1e-10
1e-10
1e-10
1e-10
1e-10
0.855443
1
1
1e-10
1e-10
1
1
1
1
1
1
1
1e-10
1e-10
1e-10
1e-10
1e-10
1e-10
1e-10
1e-10
1e-10
1e-10
1e-10
1
1
1
1
1
1e-10
1
1
0.0034598
1
1e-10
1e-10
1e-10
1e-10
1e-10
1e-10
1e-10
1e-10
1
8.88446e-09
1
1
1e-10
1
1
1
1
1
1e-10
1e-10
1e-10
1e-10
1e-10
1e-10
1e-10
1e-10
1e-10
1e-10
1e-10
1e-10
1
1
1
1
1
1
1
1e-10
1
1e-10
1e-10
1e-10
1e-10
1e-10
1e-10
1e-10
1e-10
1e-10
1e-10
1
1e-10
1
1
1
1
1
1
1
1e-10
1e-10
1e-10
1e-10
1e-10
1e-10
1e-10
1e-10
1e-10
1e-10
1e-10
1e-10
1e-10
1
1
1
1
1
1
1
1e-10
1e-10
1e-10
1e-10
1e-10
1e-10
1e-10
1e-10
1e-10
1e-10
1e-10
1e-10
1
1
1
1
1
1
1
1e-10
1e-10
1e-10
1e-10
1e-10
1e-10
1e-10
1e-10
1e-10
1e-10
1e-10
1e-10
1e-10
1e-10
1e-10
1
1
1
1
1
1
0.910533
1e-10
1e-10
1e-10
1e-10
1e-10
1e-10
1e-10
1e-10
1e-10
1e-10
0.911131
1
1
1
1
1
1
1e-10
1e-10
1e-10
1e-10
1e-10
1e-10
1e-10
1e-10
1e-10
1e-10
1e-10
1e-10
1e-10
1e-10
1e-10
1e-10
1
1
1
1
1
1
1
1e-10
1e-10
1e-10
1e-10
1e-10
1e-10
1e-10
1e-10
1e-10
1e-10
1
1
1
1
1
1
1
1e-10
1e-10
1e-10
1e-10
1e-10
1e-10
1e-10
1e-10
1e-10
1e-10
1e-10
1e-10
1e-10
1e-10
1e-10
1e-10
1e-10
1
1
1
1
1
1
1
1e-10
1e-10
1e-10
1e-10
1e-10
1e-10
1e-10
1e-10
1
1
1
1
1
1
1
1e-10
1e-10
1e-10
1e-10
1e-10
1e-10
1e-10
1e-10
1e-10
1e-10
1e-10
1e-10
1e-10
1e-10
1e-10
1e-10
1e-10
1e-10
1e-10
1
1
1
1
1
1
1
1e-10
1e-10
1e-10
1e-10
1e-10
1e-10
1
1
1
1
1
1
1
1e-10
1e-10
1e-10
1e-10
1e-10
1e-10
1e-10
1e-10
1e-10
1e-10
1e-10
1e-10
1e-10
1e-10
1e-10
1e-10
1e-10
1e-10
1e-10
1e-10
1
1
1
1
1
1
1
1e-10
1e-10
1e-10
1e-10
1e-10
1e-10
1
1
1
1
1
1
1
1e-10
1e-10
1e-10
1e-10
1e-10
1e-10
1e-10
1e-10
1e-10
1e-10
1e-10
1e-10
1e-10
1e-10
1e-10
1e-10
1e-10
1e-10
1e-10
1e-10
1e-10
1
1
1
1
1
1e-10
1
1e-10
1e-10
1e-10
1e-10
1
1e-10
1
1
1
1
1
1e-10
1e-10
1e-10
1e-10
1e-10
1e-10
1e-10
1e-10
1e-10
1e-10
1e-10
1e-10
1e-10
1e-10
1e-10
1e-10
1e-10
1e-10
1e-10
1e-10
1e-10
1e-10
1e-10
1
1
1
1
1
1
1
1e-10
1e-10
1
1
1
1
1
1
1
1e-10
1e-10
1e-10
1e-10
1e-10
1e-10
1e-10
1e-10
1e-10
1e-10
1e-10
1e-10
1e-10
1e-10
1e-10
1e-10
1e-10
1e-10
1e-10
1e-10
1e-10
1e-10
1e-10
1e-10
1e-10
1
1
1
1
1
1
1
1
1
1
1
1
1
1
1e-10
1e-10
1e-10
1e-10
1e-10
1e-10
1e-10
1e-10
1e-10
1e-10
1e-10
1e-10
1e-10
1e-10
1e-10
1e-10
1e-10
1e-10
1e-10
1e-10
1e-10
1e-10
1e-10
1e-10
1e-10
1e-10
1e-10
1
1
1
1
1
1
1
1
1
1
1
1
1e-10
1e-10
1e-10
1e-10
1e-10
1e-10
1e-10
1e-10
1e-10
1e-10
1e-10
1e-10
1e-10
1e-10
1e-10
1e-10
1e-10
1e-10
1e-10
1e-10
1e-10
1e-10
1e-10
1e-10
1e-10
1e-10
1e-10
1e-10
1
1
1
1
1
1
1
1
1
1
1
1
1e-10
1e-10
1e-10
1e-10
1e-10
1e-10
1e-10
1e-10
1e-10
1e-10
1e-10
1e-10
1e-10
1e-10
1e-10
1e-10
1e-10
1e-10
1e-10
1e-10
1e-10
1e-10
1e-10
1e-10
1e-10
1e-10
1e-10
1e-10
1e-10
1
1
1
1
1
1
1
1
1
1
1e-10
1e-10
1e-10
1e-10
1e-10
1e-10
1e-10
1e-10
1e-10
1e-10
1e-10
1e-10
1e-10
1e-10
1e-10
1e-10
1e-10
1e-10
1e-10
1e-10
1e-10
1e-10
1e-10
1e-10
1e-10
1e-10
1e-10
1e-10
1e-10
1e-10
1e-10
1
1
1
1
1
1
1
1
1e-10
1e-10
1e-10
1e-10
1e-10
1e-10
1e-10
1e-10
1e-10
1e-10
1e-10
1e-10
1e-10
1e-10
1e-10
1e-10
1e-10
1e-10
1e-10
1e-10
1e-10
1e-10
1e-10
1e-10
1e-10
1e-10
1e-10
1e-10
1e-10
1e-10
1e-10
1e-10
1e-10
1
1
1
1
1
1
1e-10
1e-10
1e-10
1e-10
1e-10
1e-10
1e-10
1e-10
1e-10
1e-10
1e-10
1e-10
1e-10
1e-10
1e-10
1e-10
1e-10


POINT_DATA	7401
VECTORS u0 float
0	0	0
0	0	0
0	0	0
0	0	0
0	0	0
0	0	0
0	0	0
0	0	0
0	0	0
0	0	0
0	0	0
0	0	0
0	0	0
0	0	0
0	0	0
0	0	0
0	0	0
0	0	0
0	0	0
0	0	0
0	0	0
0	0	0
0	0	0
0	0	0
0	0	0
0	0	0
0	0	0
0	0	0
0	0	0
0	0	0
0	0	0
0	0	0
0	0	0
0	0	0
0	0	0
0	0	0
0	0	0
0	0	0
0	0	0
0	0	0
0	0	0
-0.00232908	-0.0013192	0
-0.00151553	-0.00105525	0
-0.00115828	-0.000901986	0
-0.000939838	-0.000815765	0
-0.000706786	-0.000718554	0
-0.000228981	-0.000607384	0
-0.000556242	-0.00071966	0
-0.000544753	-0.000763653	0
-0.000508161	-0.000747534	0
-0.000403399	-0.000678927	0
-0.000352262	-0.000605368	0
-0.000203354	-0.000553274	0
-0.000132821	-0.000479357	0
-0.00012016	-0.000449675	0
-7.4768e-05	-0.000411642	0
0.000151937	-0.000347608	0
0.000257807	-0.00037655	0
0.000208575	-0.000482153	0
0.000112087	-0.000624138	0
3.63153e-05	-0.000725767	0
-7.15123e-09	-0.000774295	0
-3.63291e-05	-0.000725768	0
-0.0001121	-0.000624139	0
-0.000208587	-0.000482155	0
-0.000257818	-0.000376554	0
-0.000151949	-0.000347612	0
7.47553e-05	-0.000411645	0
0.000120148	-0.000449678	0
0.00013281	-0.000479359	0
0.000203342	-0.000553275	0
0.00035225	-0.000605368	0
0.000403389	-0.000678926	0
0.00050815	-0.000747531	0
0.000544744	-0.000763649	0
0.000556234	-0.000719656	0
0.00022898	-0.00060738	0
0.000706784	-0.000718549	0
0.000939837	-0.000815761	0
0.00115828	-0.000901982	0
0.00151554	-0.00105525	0
0.00232908	-0.00131919	0
-0.00312795	-0.00254898	0
-0.00226669	-0.00218651	0
-0.00175565	-0.00192509	0
-0.00141956	-0.00177448	0
-0.0011289	-0.00170132	0
-0.000835374	-0.00171344	0
-0.000794987	-0.00182173	0
-0.000830473	-0.00163239	0
-0.000769122	-0.00151786	0
-0.000694466	-0.00141814	0
-0.000516193	-0.00129693	0
-0.000422132	-0.00115022	0
-0.000293157	-0.00103537	0
-0.000177496	-0.00091059	0
-8.82144e-05	-0.000870087	0
5.9336e-05	-0.000891413	0
0.000262741	-0.000886155	0
0.0003585	-0.00097021	0
0.000261197	-0.0010865	0
0.00014148	-0.00116733	0
-9.46832e-09	-0.00118191	0
-0.000141499	-0.00116733	0
-0.000261215	-0.00108651	0
-0.000358517	-0.000970215	0
-0.000262759	-0.000886161	0
-5.93545e-05	-0.000891419	0
8.81955e-05	-0.000870092	0
0.000177477	-0.000910596	0
0.000293139	-0.00103537	0
0.000422114	-0.00115022	0
0.000516176	-0.00129694	0
0.000694449	-0.00141814	0
0.000769106	-0.00151786	0
0.000830458	-0.00163239	0
0.000794974	-0.00182172	0
0.000835369	-0.00171343	0
0.00112889	-0.00170131	0
0.00141956	-0.00177447	0
0.00175565	-0.00192509	0
0.0022667	-0.0021865	0
0.00312796	-0.00254897	0
-0.00391141	-0.00354764	0
-0.0030612	-0.00323943	0
-0.00243427	-0.00298189	0
-0.00197237	-0.00281188	0
-0.00161159	-0.00271187	0
-0.00132208	-0.00259666	0
-0.000809128	-0.00251472	0
-0.00121919	-0.00250834	0
-0.0011377	-0.00246686	0
-0.000952908	-0.00233204	0
-0.000865014	-0.00211191	0
-0.000680573	-0.00190354	0
-0.000490303	-0.00170723	0
-0.000335559	-0.0015721	0
-0.000121133	-0.00153748	0
-1.06414e-05	-0.00155807	0
0.000164874	-0.00157581	0
0.000345053	-0.00150227	0
0.000388509	-0.00147854	0
0.000213307	-0.00148437	0
-1.15572e-08	-0.001483	0
-0.00021333	-0.00148438	0
-0.000388533	-0.00147855	0
-0.000345077	-0.00150228	0
-0.000164899	-0.00157581	0
1.06156e-05	-0.00155808	0
0.000121107	-0.00153749	0
0.000335533	-0.0015721	0
0.000490278	-0.00170723	0
0.000680548	-0.00190354	0
0.000864989	-0.00211191	0
0.000952884	-0.00233204	0
0.00113768	-0.00246686	0
0.00121916	-0.00250834	0
0.000809115	-0.00251471	0
0.00132207	-0.00259665	0
0.00161159	-0.00271187	0
0.00197237	-0.00281187	0
0.00243428	-0.00298188	0
0.00306121	-0.00323943	0
0.00391142	-0.00354764	0
-0.00459315	-0.00448753	0
-0.00374785	-0.00421063	0
-0.00305061	-0.00397313	0
-0.00249387	-0.00381275	0
-0.00206216	-0.00373177	0
-0.00173182	-0.00374066	0
-0.00145529	-0.00387748	0
-0.00168678	-0.0041245	0
-0.00153874	-0.00359781	0
-0.0013782	-0.00332669	0
-0.00119656	-0.00306309	0
-0.00101319	-0.00280347	0
-0.000774802	-0.00255571	0
-0.000497744	-0.00242506	0
-0.000325256	-0.0023668	0
-0.000121231	-0.00232872	0
-1.45594e-05	-0.00224342	0
0.000163006	-0.00211146	0
0.000321633	-0.00191475	0
0.000262451	-0.00180585	0
-1.33566e-08	-0.00180813	0
-0.000262478	-0.00180585	0
-0.000321662	-0.00191475	0
-0.000163036	-0.00211146	0
1.45272e-05	-0.00224343	0
0.000121198	-0.00232873	0
0.000325223	-0.00236681	0
0.000497711	-0.00242507	0
0.000774769	-0.00255572	0
0.00101315	-0.00280347	0
0.00119653	-0.0030631	0
0.00137816	-0.00332669	0
0.00153871	-0.0035978	0
0.00168675	-0.00412449	0
0.00145527	-0.00387747	0
0.00173181	-0.00374065	0
0.00206216	-0.00373176	0
0.00249387	-0.00381275	0
0.00305061	-0.00397312	0
0.00374786	-0.00421063	0
0.00459316	-0.00448753	0
-0.00522103	-0.0053812	0
-0.0043759	-0.00512189	0
-0.00361808	-0.00490053	0
-0.00297391	-0.00474957	0
-0.00245748	-0.00468368	0
-0.00207995	-0.00467942	0
-0.00191671	-0.00470835	0
-0.00192596	-0.00487892	0
-0.0020385	-0.00509148	0
-0.00185199	-0.00448442	0
-0.00162534	-0.00413888	0
-0.00139255	-0.003805	0
-0.00110828	-0.00358689	0
-0.000829151	-0.00336512	0
-0.000593256	-0.00323366	0
-0.000410649	-0.00313616	0
-0.000208109	-0.00298567	0
-9.10233e-05	-0.00272416	0
0.000112605	-0.00245988	0
0.000185183	-0.00227845	0
-1.50247e-08	-0.00219193	0
-0.000185214	-0.00227845	0
-0.000112639	-0.00245988	0
9.09868e-05	-0.00272416	0
0.000208071	-0.00298568	0
0.000410609	-0.00313617	0
0.000593215	-0.00323367	0
0.00082911	-0.00336513	0
0.00110824	-0.0035869	0
0.00139251	-0.00380501	0
0.0016253	-0.00413888	0
0.00185195	-0.00448442	0
0.00203845	-0.00509148	0
0.00192593	-0.00487892	0
0.00191669	-0.00470835	0
0.00207994	-0.00467942	0
0.00245748	-0.00468368	0
0.00297392	-0.00474957	0
0.00361809	-0.00490053	0
0.00437591	-0.00512189	0
0.00522104	-0.0053812	0
-0.00583142	-0.00624614	0
-0.00496942	-0.00599114	0
-0.00414798	-0.0057726	0
-0.00341553	-0.00561776	0
-0.00281844	-0.00553933	0
-0.00240671	-0.00552085	0
-0.00221296	-0.00552369	0
-0.00219658	-0.00556831	0
-0.00224233	-0.0057233	0
-0.00236694	-0.00590312	0
-0.00211447	-0.00524696	0
-0.00179495	-0.00491662	0
-0.00152624	-0.0045994	0
-0.0012377	-0.00440861	0
-0.000956146	-0.00418908	0
-0.000738537	-0.00397552	0
-0.000487405	-0.00373009	0
-0.000282868	-0.00344823	0
-0.0001914	-0.00313727	0
-3.00743e-05	-0.00287841	0
-1.70347e-08	-0.00280937	0
3.00391e-05	-0.00287841	0
0.000191361	-0.00313727	0
0.000282826	-0.00344824	0
0.00048736	-0.0037301	0
0.00073849	-0.00397553	0
0.000956098	-0.00418909	0
0.00123765	-0.00440862	0
0.00152619	-0.00459941	0
0.0017949	-0.00491663	0
0.00211442	-0.00524697	0
0.00236689	-0.00590312	0
0.00224228	-0.0057233	0
0.00219655	-0.00556832	0
0.00221293	-0.00552369	0
0.0024067	-0.00552085	0
0.00281843	-0.00553933	0
0.00341553	-0.00561776	0
0.00414799	-0.0057726	0
0.00496943	-0.00599114	0
0.00583144	-0.00624614	0
-0.00645356	-0.00711622	0
-0.00555049	-0.0068561	0
-0.00465948	-0.00662573	0
-0.00383032	-0.0064466	0
-0.00313711	-0.00634546	0
-0.00268602	-0.00631268	0
-0.00248691	-0.0062889	0
-0.00244494	-0.0062683	0
-0.00248182	-0.00628589	0
-0.00253412	-0.00639885	0
-0.00262447	-0.00653664	0
-0.00228109	-0.00598601	0
-0.00195466	-0.005685	0
-0.00165717	-0.00545385	0
-0.00138461	-0.00528311	0
-0.00107523	-0.00496772	0
-0.000798359	-0.00462524	0
-0.00054422	-0.00427516	0
-0.000479029	-0.00397592	0
-0.000355873	-0.00373472	0
-1.94989e-08	-0.00359698	0
0.000355833	-0.00373472	0
0.000478986	-0.00397592	0
0.000544174	-0.00427517	0
0.00079831	-0.00462525	0
0.00107517	-0.00496772	0
0.00138456	-0.00528312	0
0.00165712	-0.00545386	0
0.00195461	-0.00568501	0
0.00228103	-0.00598603	0
0.00262441	-0.00653665	0
0.00253406	-0.00639886	0
0.00248177	-0.0062859	0
0.0024449	-0.00626831	0
0.00248688	-0.0062889	0
0.002686	-0.00631269	0
0.00313711	-0.00634547	0
0.00383032	-0.00644661	0
0.00465949	-0.00662574	0
0.0055505	-0.00685611	0
0.00645359	-0.00711623	0
-0.00710006	-0.00803627	0
-0.00613257	-0.00776895	0
-0.00517293	-0.00751924	0
-0.00424508	-0.00728989	0
-0.00339238	-0.00712728	0
-0.0029089	-0.00706768	0
-0.00276404	-0.0069928	0
-0.00271929	-0.00691027	0
-0.00271629	-0.00686366	0
-0.0027395	-0.00686227	0
-0.00274953	-0.00693964	0
-0.00275059	-0.00703608	0
-0.00235482	-0.00674112	0
-0.00212138	-0.00649937	0
-0.00179724	-0.00630086	0
-0.00145901	-0.00598182	0
-0.00116088	-0.00561086	0
-0.000949922	-0.00531278	0
-0.000772461	-0.00504247	0
-0.000630023	-0.00484036	0
-2.26761e-08	-0.00474768	0
0.000629977	-0.00484036	0
0.000772414	-0.00504247	0
0.000949872	-0.00531278	0
0.00116082	-0.00561087	0
0.00145896	-0.00598183	0
0.00179718	-0.00630086	0
0.00212132	-0.00649938	0
0.00235476	-0.00674113	0
0.00275052	-0.0070361	0
0.00274947	-0.00693966	0
0.00273945	-0.00686229	0
0.00271625	-0.00686368	0
0.00271925	-0.00691028	0
0.00276401	-0.00699282	0
0.00290889	-0.00706769	0
0.00339237	-0.00712729	0
0.00424508	-0.00728991	0
0.00517294	-0.00751926	0
0.0061326	-0.00776897	0
0.00710009	-0.00803629	0
-0.00775964	-0.00904511	0
-0.0067151	-0.00877815	0
-0.00569589	-0.00852605	0
-0.00468969	-0.00827657	0
-0.00361411	-0.00800729	0
-0.00308662	-0.00764825	0
-0.00305284	-0.00756688	0
-0.00301731	-0.00747353	0
-0.00297191	-0.00741418	0
-0.00294969	-0.00737712	0
-0.00291856	-0.00736203	0
-0.00283447	-0.00739501	0
-0.00265225	-0.00743376	0
-0.00234077	-0.00735322	0
-0.00211105	-0.00719566	0
-0.00183854	-0.00702378	0
-0.00157122	-0.00670709	0
-0.0013774	-0.00643661	0
-0.00110595	-0.00631334	0
-0.000603676	-0.00624646	0
-2.60088e-08	-0.00628666	0
0.000603625	-0.00624646	0
0.0011059	-0.00631334	0
0.00137735	-0.00643661	0
0.00157117	-0.00670709	0
0.00183848	-0.00702379	0
0.00211099	-0.00719567	0
0.00234071	-0.00735324	0
0.00265218	-0.00743379	0
0.0028344	-0.00739503	0
0.0029185	-0.00736205	0
0.00294964	-0.00737715	0
0.00297186	-0.0074142	0
0.00301727	-0.00747355	0
0.00305281	-0.0075669	0
0.00308661	-0.00764827	0
0.0036141	-0.00800732	0
0.0046897	-0.00827659	0
0.0056959	-0.00852608	0
0.00671512	-0.00877818	0
0.00775968	-0.00904514	0
-0.00840571	-0.0101542	0
-0.00728548	-0.00989809	0
-0.00620662	-0.00966181	0
-0.00512541	-0.00945251	0
-0.00397103	-0.00927639	0
-0.00317602	-0.00785686	0
-0.00336428	-0.00796422	0
-0.00328363	-0.00799738	0
-0.00323163	-0.00796737	0
-0.00318294	-0.00792077	0
-0.00310989	-0.00788597	0
-0.00297023	-0.00785448	0
-0.00265257	-0.0078295	0
-0.00257779	-0.00787478	0
-0.00231695	-0.00789174	0