# vtk DataFile Version 4.1
vtk output
ASCII
DATASET UNSTRUCTURED_GRID

POINTS	2501	float
0	0	0.0	
0	1	0.0	
0	2	0.0	
0	3	0.0	
0	4	0.0	
0	5	0.0	
0	6	0.0	
0	7	0.0	
0	8	0.0	
0	9	0.0	
0	10	0.0	
0	11	0.0	
0	12	0.0	
0	13	0.0	
0	14	0.0	
0	15	0.0	
0	16	0.0	
0	17	0.0	
0	18	0.0	
0	19	0.0	
0	20	0.0	
0	21	0.0	
0	22	0.0	
0	23	0.0	
0	24	0.0	
0	25	0.0	
0	26	0.0	
0	27	0.0	
0	28	0.0	
0	29	0.0	
0	30	0.0	
0	31	0.0	
0	32	0.0	
0	33	0.0	
0	34	0.0	
0	35	0.0	
0	36	0.0	
0	37	0.0	
0	38	0.0	
0	39	0.0	
0	40	0.0	
1	0	0.0	
1	1	0.0	
1	2	0.0	
1	3	0.0	
1	4	0.0	
1	5	0.0	
1	6	0.0	
1	7	0.0	
1	8	0.0	
1	9	0.0	
1	10	0.0	
1	11	0.0	
1	12	0.0	
1	13	0.0	
1	14	0.0	
1	15	0.0	
1	16	0.0	
1	17	0.0	
1	18	0.0	
1	19	0.0	
1	20	0.0	
1	21	0.0	
1	22	0.0	
1	23	0.0	
1	24	0.0	
1	25	0.0	
1	26	0.0	
1	27	0.0	
1	28	0.0	
1	29	0.0	
1	30	0.0	
1	31	0.0	
1	32	0.0	
1	33	0.0	
1	34	0.0	
1	35	0.0	
1	36	0.0	
1	37	0.0	
1	38	0.0	
1	39	0.0	
1	40	0.0	
2	0	0.0	
2	1	0.0	
2	2	0.0	
2	3	0.0	
2	4	0.0	
2	5	0.0	
2	6	0.0	
2	7	0.0	
2	8	0.0	
2	9	0.0	
2	10	0.0	
2	11	0.0	
2	12	0.0	
2	13	0.0	
2	14	0.0	
2	15	0.0	
2	16	0.0	
2	17	0.0	
2	18	0.0	
2	19	0.0	
2	20	0.0	
2	21	0.0	
2	22	0.0	
2	23	0.0	
2	24	0.0	
2	25	0.0	
2	26	0.0	
2	27	0.0	
2	28	0.0	
2	29	0.0	
2	30	0.0	
2	31	0.0	
2	32	0.0	
2	33	0.0	
2	34	0.0	
2	35	0.0	
2	36	0.0	
2	37	0.0	
2	38	0.0	
2	39	0.0	
2	40	0.0	
3	0	0.0	
3	1	0.0	
3	2	0.0	
3	3	0.0	
3	4	0.0	
3	5	0.0	
3	6	0.0	
3	7	0.0	
3	8	0.0	
3	9	0.0	
3	10	0.0	
3	11	0.0	
3	12	0.0	
3	13	0.0	
3	14	0.0	
3	15	0.0	
3	16	0.0	
3	17	0.0	
3	18	0.0	
3	19	0.0	
3	20	0.0	
3	21	0.0	
3	22	0.0	
3	23	0.0	
3	24	0.0	
3	25	0.0	
3	26	0.0	
3	27	0.0	
3	28	0.0	
3	29	0.0	
3	30	0.0	
3	31	0.0	
3	32	0.0	
3	33	0.0	
3	34	0.0	
3	35	0.0	
3	36	0.0	
3	37	0.0	
3	38	0.0	
3	39	0.0	
3	40	0.0	
4	0	0.0	
4	1	0.0	
4	2	0.0	
4	3	0.0	
4	4	0.0	
4	5	0.0	
4	6	0.0	
4	7	0.0	
4	8	0.0	
4	9	0.0	
4	10	0.0	
4	11	0.0	
4	12	0.0	
4	13	0.0	
4	14	0.0	
4	15	0.0	
4	16	0.0	
4	17	0.0	
4	18	0.0	
4	19	0.0	
4	20	0.0	
4	21	0.0	
4	22	0.0	
4	23	0.0	
4	24	0.0	
4	25	0.0	
4	26	0.0	
4	27	0.0	
4	28	0.0	
4	29	0.0	
4	30	0.0	
4	31	0.0	
4	32	0.0	
4	33	0.0	
4	34	0.0	
4	35	0.0	
4	36	0.0	
4	37	0.0	
4	38	0.0	
4	39	0.0	
4	40	0.0	
5	0	0.0	
5	1	0.0	
5	2	0.0	
5	3	0.0	
5	4	0.0	
5	5	0.0	
5	6	0.0	
5	7	0.0	
5	8	0.0	
5	9	0.0	
5	10	0.0	
5	11	0.0	
5	12	0.0	
5	13	0.0	
5	14	0.0	
5	15	0.0	
5	16	0.0	
5	17	0.0	
5	18	0.0	
5	19	0.0	
5	20	0.0	
5	21	0.0	
5	22	0.0	
5	23	0.0	
5	24	0.0	
5	25	0.0	
5	26	0.0	
5	27	0.0	
5	28	0.0	
5	29	0.0	
5	30	0.0	
5	31	0.0	
5	32	0.0	
5	33	0.0	
5	34	0.0	
5	35	0.0	
5	36	0.0	
5	37	0.0	
5	38	0.0	
5	39	0.0	
5	40	0.0	
6	0	0.0	
6	1	0.0	
6	2	0.0	
6	3	0.0	
6	4	0.0	
6	5	0.0	
6	6	0.0	
6	7	0.0	
6	8	0.0	
6	9	0.0	
6	10	0.0	
6	11	0.0	
6	12	0.0	
6	13	0.0	
6	14	0.0	
6	15	0.0	
6	16	0.0	
6	17	0.0	
6	18	0.0	
6	19	0.0	
6	20	0.0	
6	21	0.0	
6	22	0.0	
6	23	0.0	
6	24	0.0	
6	25	0.0	
6	26	0.0	
6	27	0.0	
6	28	0.0	
6	29	0.0	
6	30	0.0	
6	31	0.0	
6	32	0.0	
6	33	0.0	
6	34	0.0	
6	35	0.0	
6	36	0.0	
6	37	0.0	
6	38	0.0	
6	39	0.0	
6	40	0.0	
7	0	0.0	
7	1	0.0	
7	2	0.0	
7	3	0.0	
7	4	0.0	
7	5	0.0	
7	6	0.0	
7	7	0.0	
7	8	0.0	
7	9	0.0	
7	10	0.0	
7	11	0.0	
7	12	0.0	
7	13	0.0	
7	14	0.0	
7	15	0.0	
7	16	0.0	
7	17	0.0	
7	18	0.0	
7	19	0.0	
7	20	0.0	
7	21	0.0	
7	22	0.0	
7	23	0.0	
7	24	0.0	
7	25	0.0	
7	26	0.0	
7	27	0.0	
7	28	0.0	
7	29	0.0	
7	30	0.0	
7	31	0.0	
7	32	0.0	
7	33	0.0	
7	34	0.0	
7	35	0.0	
7	36	0.0	
7	37	0.0	
7	38	0.0	
7	39	0.0	
7	40	0.0	
8	0	0.0	
8	1	0.0	
8	2	0.0	
8	3	0.0	
8	4	0.0	
8	5	0.0	
8	6	0.0	
8	7	0.0	
8	8	0.0	
8	9	0.0	
8	10	0.0	
8	11	0.0	
8	12	0.0	
8	13	0.0	
8	14	0.0	
8	15	0.0	
8	16	0.0	
8	17	0.0	
8	18	0.0	
8	19	0.0	
8	20	0.0	
8	21	0.0	
8	22	0.0	
8	23	0.0	
8	24	0.0	
8	25	0.0	
8	26	0.0	
8	27	0.0	
8	28	0.0	
8	29	0.0	
8	30	0.0	
8	31	0.0	
8	32	0.0	
8	33	0.0	
8	34	0.0	
8	35	0.0	
8	36	0.0	
8	37	0.0	
8	38	0.0	
8	39	0.0	
8	40	0.0	
9	0	0.0	
9	1	0.0	
9	2	0.0	
9	3	0.0	
9	4	0.0	
9	5	0.0	
9	6	0.0	
9	7	0.0	
9	8	0.0	
9	9	0.0	
9	10	0.0	
9	11	0.0	
9	12	0.0	
9	13	0.0	
9	14	0.0	
9	15	0.0	
9	16	0.0	
9	17	0.0	
9	18	0.0	
9	19	0.0	
9	20	0.0	
9	21	0.0	
9	22	0.0	
9	23	0.0	
9	24	0.0	
9	25	0.0	
9	26	0.0	
9	27	0.0	
9	28	0.0	
9	29	0.0	
9	30	0.0	
9	31	0.0	
9	32	0.0	
9	33	0.0	
9	34	0.0	
9	35	0.0	
9	36	0.0	
9	37	0.0	
9	38	0.0	
9	39	0.0	
9	40	0.0	
10	0	0.0	
10	1	0.0	
10	2	0.0	
10	3	0.0	
10	4	0.0	
10	5	0.0	
10	6	0.0	
10	7	0.0	
10	8	0.0	
10	9	0.0	
10	10	0.0	
10	11	0.0	
10	12	0.0	
10	13	0.0	
10	14	0.0	
10	15	0.0	
10	16	0.0	
10	17	0.0	
10	18	0.0	
10	19	0.0	
10	20	0.0	
10	21	0.0	
10	22	0.0	
10	23	0.0	
10	24	0.0	
10	25	0.0	
10	26	0.0	
10	27	0.0	
10	28	0.0	
10	29	0.0	
10	30	0.0	
10	31	0.0	
10	32	0.0	
10	33	0.0	
10	34	0.0	
10	35	0.0	
10	36	0.0	
10	37	0.0	
10	38	0.0	
10	39	0.0	
10	40	0.0	
11	0	0.0	
11	1	0.0	
11	2	0.0	
11	3	0.0	
11	4	0.0	
11	5	0.0	
11	6	0.0	
11	7	0.0	
11	8	0.0	
11	9	0.0	
11	10	0.0	
11	11	0.0	
11	12	0.0	
11	13	0.0	
11	14	0.0	
11	15	0.0	
11	16	0.0	
11	17	0.0	
11	18	0.0	
11	19	0.0	
11	20	0.0	
11	21	0.0	
11	22	0.0	
11	23	0.0	
11	24	0.0	
11	25	0.0	
11	26	0.0	
11	27	0.0	
11	28	0.0	
11	29	0.0	
11	30	0.0	
11	31	0.0	
11	32	0.0	
11	33	0.0	
11	34	0.0	
11	35	0.0	
11	36	0.0	
11	37	0.0	
11	38	0.0	
11	39	0.0	
11	40	0.0	
12	0	0.0	
12	1	0.0	
12	2	0.0	
12	3	0.0	
12	4	0.0	
12	5	0.0	
12	6	0.0	
12	7	0.0	
12	8	0.0	
12	9	0.0	
12	10	0.0	
12	11	0.0	
12	12	0.0	
12	13	0.0	
12	14	0.0	
12	15	0.0	
12	16	0.0	
12	17	0.0	
12	18	0.0	
12	19	0.0	
12	20	0.0	
12	21	0.0	
12	22	0.0	
12	23	0.0	
12	24	0.0	
12	25	0.0	
12	26	0.0	
12	27	0.0	
12	28	0.0	
12	29	0.0	
12	30	0.0	
12	31	0.0	
12	32	0.0	
12	33	0.0	
12	34	0.0	
12	35	0.0	
12	36	0.0	
12	37	0.0	
12	38	0.0	
12	39	0.0	
12	40	0.0	
13	0	0.0	
13	1	0.0	
13	2	0.0	
13	3	0.0	
13	4	0.0	
13	5	0.0	
13	6	0.0	
13	7	0.0	
13	8	0.0	
13	9	0.0	
13	10	0.0	
13	11	0.0	
13	12	0.0	
13	13	0.0	
13	14	0.0	
13	15	0.0	
13	16	0.0	
13	17	0.0	
13	18	0.0	
13	19	0.0	
13	20	0.0	
13	21	0.0	
13	22	0.0	
13	23	0.0	
13	24	0.0	
13	25	0.0	
13	26	0.0	
13	27	0.0	
13	28	0.0	
13	29	0.0	
13	30	0.0	
13	31	0.0	
13	32	0.0	
13	33	0.0	
13	34	0.0	
13	35	0.0	
13	36	0.0	
13	37	0.0	
13	38	0.0	
13	39	0.0	
13	40	0.0	
14	0	0.0	
14	1	0.0	
14	2	0.0	
14	3	0.0	
14	4	0.0	
14	5	0.0	
14	6	0.0	
14	7	0.0	
14	8	0.0	
14	9	0.0	
14	10	0.0	
14	11	0.0	
14	12	0.0	
14	13	0.0	
14	14	0.0	
14	15	0.0	
14	16	0.0	
14	17	0.0	
14	18	0.0	
14	19	0.0	
14	20	0.0	
14	21	0.0	
14	22	0.0	
14	23	0.0	
14	24	0.0	
14	25	0.0	
14	26	0.0	
14	27	0.0	
14	28	0.0	
14	29	0.0	
14	30	0.0	
14	31	0.0	
14	32	0.0	
14	33	0.0	
14	34	0.0	
14	35	0.0	
14	36	0.0	
14	37	0.0	
14	38	0.0	
14	39	0.0	
14	40	0.0	
15	0	0.0	
15	1	0.0	
15	2	0.0	
15	3	0.0	
15	4	0.0	
15	5	0.0	
15	6	0.0	
15	7	0.0	
15	8	0.0	
15	9	0.0	
15	10	0.0	
15	11	0.0	
15	12	0.0	
15	13	0.0	
15	14	0.0	
15	15	0.0	
15	16	0.0	
15	17	0.0	
15	18	0.0	
15	19	0.0	
15	20	0.0	
15	21	0.0	
15	22	0.0	
15	23	0.0	
15	24	0.0	
15	25	0.0	
15	26	0.0	
15	27	0.0	
15	28	0.0	
15	29	0.0	
15	30	0.0	
15	31	0.0	
15	32	0.0	
15	33	0.0	
15	34	0.0	
15	35	0.0	
15	36	0.0	
15	37	0.0	
15	38	0.0	
15	39	0.0	
15	40	0.0	
16	0	0.0	
16	1	0.0	
16	2	0.0	
16	3	0.0	
16	4	0.0	
16	5	0.0	
16	6	0.0	
16	7	0.0	
16	8	0.0	
16	9	0.0	
16	10	0.0	
16	11	0.0	
16	12	0.0	
16	13	0.0	
16	14	0.0	
16	15	0.0	
16	16	0.0	
16	17	0.0	
16	18	0.0	
16	19	0.0	
16	20	0.0	
16	21	0.0	
16	22	0.0	
16	23	0.0	
16	24	0.0	
16	25	0.0	
16	26	0.0	
16	27	0.0	
16	28	0.0	
16	29	0.0	
16	30	0.0	
16	31	0.0	
16	32	0.0	
16	33	0.0	
16	34	0.0	
16	35	0.0	
16	36	0.0	
16	37	0.0	
16	38	0.0	
16	39	0.0	
16	40	0.0	
17	0	0.0	
17	1	0.0	
17	2	0.0	
17	3	0.0	
17	4	0.0	
17	5	0.0	
17	6	0.0	
17	7	0.0	
17	8	0.0	
17	9	0.0	
17	10	0.0	
17	11	0.0	
17	12	0.0	
17	13	0.0	
17	14	0.0	
17	15	0.0	
17	16	0.0	
17	17	0.0	
17	18	0.0	
17	19	0.0	
17	20	0.0	
17	21	0.0	
17	22	0.0	
17	23	0.0	
17	24	0.0	
17	25	0.0	
17	26	0.0	
17	27	0.0	
17	28	0.0	
17	29	0.0	
17	30	0.0	
17	31	0.0	
17	32	0.0	
17	33	0.0	
17	34	0.0	
17	35	0.0	
17	36	0.0	
17	37	0.0	
17	38	0.0	
17	39	0.0	
17	40	0.0	
18	0	0.0	
18	1	0.0	
18	2	0.0	
18	3	0.0	
18	4	0.0	
18	5	0.0	
18	6	0.0	
18	7	0.0	
18	8	0.0	
18	9	0.0	
18	10	0.0	
18	11	0.0	
18	12	0.0	
18	13	0.0	
18	14	0.0	
18	15	0.0	
18	16	0.0	
18	17	0.0	
18	18	0.0	
18	19	0.0	
18	20	0.0	
18	21	0.0	
18	22	0.0	
18	23	0.0	
18	24	0.0	
18	25	0.0	
18	26	0.0	
18	27	0.0	
18	28	0.0	
18	29	0.0	
18	30	0.0	
18	31	0.0	
18	32	0.0	
18	33	0.0	
18	34	0.0	
18	35	0.0	
18	36	0.0	
18	37	0.0	
18	38	0.0	
18	39	0.0	
18	40	0.0	
19	0	0.0	
19	1	0.0	
19	2	0.0	
19	3	0.0	
19	4	0.0	
19	5	0.0	
19	6	0.0	
19	7	0.0	
19	8	0.0	
19	9	0.0	
19	10	0.0	
19	11	0.0	
19	12	0.0	
19	13	0.0	
19	14	0.0	
19	15	0.0	
19	16	0.0	
19	17	0.0	
19	18	0.0	
19	19	0.0	
19	20	0.0	
19	21	0.0	
19	22	0.0	
19	23	0.0	
19	24	0.0	
19	25	0.0	
19	26	0.0	
19	27	0.0	
19	28	0.0	
19	29	0.0	
19	30	0.0	
19	31	0.0	
19	32	0.0	
19	33	0.0	
19	34	0.0	
19	35	0.0	
19	36	0.0	
19	37	0.0	
19	38	0.0	
19	39	0.0	
19	40	0.0	
20	0	0.0	
20	1	0.0	
20	2	0.0	
20	3	0.0	
20	4	0.0	
20	5	0.0	
20	6	0.0	
20	7	0.0	
20	8	0.0	
20	9	0.0	
20	10	0.0	
20	11	0.0	
20	12	0.0	
20	13	0.0	
20	14	0.0	
20	15	0.0	
20	16	0.0	
20	17	0.0	
20	18	0.0	
20	19	0.0	
20	20	0.0	
20	21	0.0	
20	22	0.0	
20	23	0.0	
20	24	0.0	
20	25	0.0	
20	26	0.0	
20	27	0.0	
20	28	0.0	
20	29	0.0	
20	30	0.0	
20	31	0.0	
20	32	0.0	
20	33	0.0	
20	34	0.0	
20	35	0.0	
20	36	0.0	
20	37	0.0	
20	38	0.0	
20	39	0.0	
20	40	0.0	
21	0	0.0	
21	1	0.0	
21	2	0.0	
21	3	0.0	
21	4	0.0	
21	5	0.0	
21	6	0.0	
21	7	0.0	
21	8	0.0	
21	9	0.0	
21	10	0.0	
21	11	0.0	
21	12	0.0	
21	13	0.0	
21	14	0.0	
21	15	0.0	
21	16	0.0	
21	17	0.0	
21	18	0.0	
21	19	0.0	
21	20	0.0	
21	21	0.0	
21	22	0.0	
21	23	0.0	
21	24	0.0	
21	25	0.0	
21	26	0.0	
21	27	0.0	
21	28	0.0	
21	29	0.0	
21	30	0.0	
21	31	0.0	
21	32	0.0	
21	33	0.0	
21	34	0.0	
21	35	0.0	
21	36	0.0	
21	37	0.0	
21	38	0.0	
21	39	0.0	
21	40	0.0	
22	0	0.0	
22	1	0.0	
22	2	0.0	
22	3	0.0	
22	4	0.0	
22	5	0.0	
22	6	0.0	
22	7	0.0	
22	8	0.0	
22	9	0.0	
22	10	0.0	
22	11	0.0	
22	12	0.0	
22	13	0.0	
22	14	0.0	
22	15	0.0	
22	16	0.0	
22	17	0.0	
22	18	0.0	
22	19	0.0	
22	20	0.0	
22	21	0.0	
22	22	0.0	
22	23	0.0	
22	24	0.0	
22	25	0.0	
22	26	0.0	
22	27	0.0	
22	28	0.0	
22	29	0.0	
22	30	0.0	
22	31	0.0	
22	32	0.0	
22	33	0.0	
22	34	0.0	
22	35	0.0	
22	36	0.0	
22	37	0.0	
22	38	0.0	
22	39	0.0	
22	40	0.0	
23	0	0.0	
23	1	0.0	
23	2	0.0	
23	3	0.0	
23	4	0.0	
23	5	0.0	
23	6	0.0	
23	7	0.0	
23	8	0.0	
23	9	0.0	
23	10	0.0	
23	11	0.0	
23	12	0.0	
23	13	0.0	
23	14	0.0	
23	15	0.0	
23	16	0.0	
[...]
CELL_DATA	2400
SCALARS Rho float
LOOKUP_TABLE default
1
1
1
1
2.41372e-07
1.81827e-07
1.75434e-07
1.31865e-07
1.31865e-07
1.10025e-07
9.74654e-08
9.74654e-08
9.06639e-08
7.52576e-08
7.20397e-08
7.20397e-08
7.20397e-08
7.20397e-08
7.20397e-08
7.20397e-08
7.20397e-08
7.20397e-08
7.20397e-08
7.20397e-08
7.20397e-08
7.20397e-08
7.52576e-08
9.06639e-08
9.74654e-08
9.74654e-08
1.10025e-07
1.31865e-07
1.31865e-07
1.75434e-07
1.81827e-07
2.41372e-07
1
1
1
1
1
1
1
1
1
2.03244e-07
1.78406e-07
1.42148e-07
1.31865e-07
1.16192e-07
9.74654e-08
9.74654e-08
9.51266e-08
7.96059e-08
7.20397e-08
7.20397e-08
7.20397e-08
7.20397e-08
7.20397e-08
7.20397e-08
7.20397e-08
7.20397e-08
7.20397e-08
7.20397e-08
7.20397e-08
7.20397e-08
7.96059e-08
9.51266e-08
9.74654e-08
9.74654e-08
1.16192e-07
1.31865e-07
1.42148e-07
1.78406e-07
2.03244e-07
1
1
1
1
1
1
1
1
1
1
4.68864e-07
1.78406e-07
1.51545e-07
1.31865e-07
1.21555e-07
9.90502e-08
9.74654e-08
9.74654e-08
8.39691e-08
7.20397e-08
7.20397e-08
7.20397e-08
7.20397e-08
7.20397e-08
7.20397e-08
7.20397e-08
7.20397e-08
7.20397e-08
7.20397e-08
7.20397e-08
7.20397e-08
8.39691e-08
9.74654e-08
9.74654e-08
9.90502e-08
1.21555e-07
1.31865e-07
1.51545e-07
1.78406e-07
4.68864e-07
1
1
1
1
1
1
1
1
1
1
1
1.78406e-07
1.57996e-07
1.31865e-07
1.25663e-07
1.03318e-07
9.74654e-08
9.74654e-08
8.81261e-08
7.44983e-08
7.20397e-08
7.20397e-08
7.20397e-08
7.20397e-08
7.20397e-08
7.20397e-08
7.20397e-08
7.20397e-08
7.20397e-08
7.20397e-08
7.44983e-08
8.81261e-08
9.74654e-08
9.74654e-08
1.03318e-07
1.25663e-07
1.31865e-07
1.57996e-07
1.78406e-07
1
1
1
1
1
1
1
1
1
1
1
1
1
1.70234e-07
1.31865e-07
1.2841e-07
1.06475e-07
9.74654e-08
9.74654e-08
9.1895e-08
7.84038e-08
7.20397e-08
7.20397e-08
7.20397e-08
7.20397e-08
7.20397e-08
7.20397e-08
7.20397e-08
7.20397e-08
7.20397e-08
7.20397e-08
7.84038e-08
9.1895e-08
9.74654e-08
9.74654e-08
1.06475e-07
1.2841e-07
1.31865e-07
1.70234e-07
1
1
1
1
1
1
1
1
1
1
1
1
1
1
2.02777e-06
1.73969e-07
1.29924e-07
1.08666e-07
9.74654e-08
9.74654e-08
9.51451e-08
8.18737e-08
7.20397e-08
7.20397e-08
7.20397e-08
7.20397e-08
7.20397e-08
7.20397e-08
7.20397e-08
7.20397e-08
7.20397e-08
7.20397e-08
8.18737e-08
9.51451e-08
9.74654e-08
9.74654e-08
1.08666e-07
1.29924e-07
1.73969e-07
2.02777e-06
1
1
1
1
1
1
1
1
1
1
1
1
1
1
1
2.62487e-07
1.67106e-07
1.22555e-07
1.11553e-07
9.74654e-08
9.74654e-08
8.48309e-08
7.37797e-08
7.20397e-08
7.20397e-08
7.20397e-08
7.20397e-08
7.20397e-08
7.20397e-08
7.20397e-08
7.20397e-08
7.37797e-08
8.48309e-08
9.74654e-08
9.74654e-08
1.11553e-07
1.22555e-07
1.67106e-07
2.62487e-07
1
1
1
1
1
1
1
1
1
1
1
1
1
1
1
1
1
2.7228e-07
1.78129e-07
1.27282e-07
1.07704e-07
9.74654e-08
9.11041e-08
8.21145e-08
7.44838e-08
7.82057e-08
7.35538e-08
7.20397e-08
7.20397e-08
7.35538e-08
7.82057e-08
7.44838e-08
8.21145e-08
9.11041e-08
9.74654e-08
1.07704e-07
1.27282e-07
1.78129e-07
2.7228e-07
1
1
1
1
1
1
1
1
1
1
1
1
1
1
1
1
1
1
1
2.81319e-07
1.89191e-07
1.33176e-07
1.122e-07
1.04287e-07
9.53735e-08
9.11206e-08
8.20929e-08
7.75606e-08
7.88899e-08
7.88899e-08
7.75606e-08
8.20929e-08
9.11206e-08
9.53735e-08
1.04287e-07
1.122e-07
1.33176e-07
1.89191e-07
2.81319e-07
1
1
1
1
1
1
1
1
1
1
1
1
1
1
7.84273e-07
1
1
1
1
1
1
3.05318e-07
1.99348e-07
1.44527e-07
1.209e-07
1.12665e-07
9.67399e-08
9.48656e-08
8.60781e-08
8.33036e-08
8.33036e-08
8.60781e-08
9.48656e-08
9.67399e-08
1.12665e-07
1.209e-07
1.44527e-07
1.99348e-07
3.05318e-07
1
1
1
1
1
1
7.84273e-07
1
1
1
1
1
1
1
1
1
1
1
1
1
1
1
1
3.38848e-07
1.85794e-07
1.46755e-07
1.31392e-07
1.30992e-07
1.05288e-07
9.68134e-08
9.28256e-08
9.28256e-08
9.68134e-08
1.05288e-07
1.30992e-07
1.31392e-07
1.46755e-07
1.85794e-07
3.38848e-07
1
1
1
1
1
1
1
1
1
1
1
1
1
1
1
1
1.20424e-06
6.40144e-07
1
1
1
1
1
1
1.41703e-06
3.59008e-07
1.81817e-07
1.6393e-07
1.54951e-07
1.33539e-07
1.13728e-07
1.11127e-07
1.11127e-07
1.13728e-07
1.33539e-07
1.54951e-07
1.6393e-07
1.81817e-07
3.59008e-07
1.41703e-06
1
1
1
1
1
1
6.40144e-07
1.20424e-06
1
1
1
1
1
1
1
1
5.85648e-07
5.96387e-07
2.81668e-07
1
1
1
1
1
1
5.79908e-07
3.57545e-07
1.86631e-07
1.75398e-07
1.47236e-07
1.40248e-07
1.29177e-07
1.29177e-07
1.40248e-07
1.47236e-07
1.75398e-07
1.86631e-07
3.57545e-07
5.79908e-07
1
1
1
1
1
1
2.81668e-07
5.96387e-07
5.85648e-07
1
1
1
1
1
1
1
1
4.71436e-07
3.94014e-07
5.93994e-07
3.01672e-06
1
1
1
1
1
1
5.24071e-07
3.56661e-07
1.94533e-07
1.76033e-07
1.53004e-07
1.47125e-07
1.47125e-07
1.53004e-07
1.76033e-07
1.94533e-07
3.56661e-07
5.24071e-07
1
1
1
1
1
1
3.01672e-06
5.93994e-07
3.94014e-07
4.71436e-07
1
1
1
1
1
1
1
1
3.39405e-07
3.57956e-07
2.25492e-07
3.02154e-07
1
1
1
1
1
1
1
5.12135e-07
3.27218e-07
2.27811e-07
1.8098e-07
1.72926e-07
1.72926e-07
1.8098e-07
2.27811e-07
3.27218e-07
5.12135e-07
1
1
1
1
1
1
1
3.02154e-07
2.25492e-07
3.57956e-07
3.39405e-07
1
1
1
1
1
1
1
1
2.61823e-07
2.54674e-07
2.88909e-07
2.22068e-07
9.91975e-07
1
1
1
1
5.19294e-07
1
1
4.83204e-07
2.99798e-07
2.16777e-07
1.99426e-07
1.99426e-07
2.16777e-07
2.99798e-07
4.83204e-07
1
1
5.19294e-07
1
1
1
1
9.91975e-07
2.22068e-07
2.88909e-07
2.54674e-07
2.61823e-07
1
1
1
1
1
1
1
1
2.2863e-07
2.34402e-07
1.96277e-07
2.01272e-07
2.58183e-07
1
1
1
1
1
3.86942e-07
1
1
4.80079e-07
2.95598e-07
2.5621e-07
2.5621e-07
2.95598e-07
4.80079e-07
1
1
3.86942e-07
1
1
1
1
1
2.58183e-07
2.01272e-07
1.96277e-07
2.34402e-07
2.2863e-07
1
1
1
1
1
1
1
1
2.20705e-07
2.18113e-07
1.93452e-07
2.03339e-07
2.29277e-07
1
1
1
1
1
1
3.89179e-07
1
1
8.27788e-07
3.16904e-07
3.16904e-07
8.27788e-07
1
1
3.89179e-07
1
1
1
1
1
1
2.29277e-07
2.03339e-07
1.93452e-07
2.18113e-07
2.20705e-07
1
1
1
1
1
1
1
1
2.31286e-07
1.91945e-07
1.88111e-07
2.00974e-07
2.03196e-07
2.66759e-07
1
1
1
1
1
1
4.64997e-07
1
1
1.61175e-06
1.61175e-06
1
1
4.64997e-07
1
1
1
1
1
1
2.66759e-07
2.03196e-07
2.00974e-07
1.88111e-07
1.91945e-07
2.31286e-07
1
1
1
1
1
1
1
1
2.61358e-07
1.90235e-07
1.83956e-07
2.09952e-07
2.12883e-07
2.02685e-07
1
1
1
1
1
1
1
5.07768e-07
1
2.87754e-06
2.87754e-06
1
5.07768e-07
1
1
1
1
1
1
1
2.02685e-07
2.12883e-07
2.09952e-07
1.83956e-07
1.90235e-07
2.61358e-07
1
1
1
1
1
1
1
1
4.58237e-07
2.51085e-07
1.85983e-07
2.00462e-07
2.18976e-07
5.44717e-07
7.85369e-07
1
2.71313e-07
1
1
1
1
1
1
1
1
1
1
1
1
1
1
2.71313e-07
1
7.85369e-07
5.44717e-07
2.18976e-07
2.00462e-07
1.85983e-07
2.51085e-07
4.58237e-07
1
1
1
1
1
1
1
1
1
2.15741e-07
2.27286e-07
1.84762e-07
2.55693e-07
2.40873e-07
1
2.57231e-07
1
2.63496e-07
1
1
1
1
1
1
1
1
1
1
1
1
2.63496e-07
1
2.57231e-07
1
2.40873e-07
2.55693e-07
1.84762e-07
2.27286e-07
2.15741e-07
1
1
1
1
1
1
1
1
1
1
2.41047e-07
2.48063e-07
2.47506e-07
2.07616e-07
3.79878e-07
2.49918e-07
1
3.52547e-07
1
3.24522e-07
1
1
1
1
1
1
1
1
1
1
3.24522e-07
1
3.52547e-07
1
2.49918e-07
3.79878e-07
2.07616e-07
2.47506e-07
2.48063e-07
2.41047e-07
1
1
1
1
1
1
1
1
1
1
1
2.13647e-07
9.05573e-07
2.65777e-07
2.77642e-07
1
2.35021e-07
1
1
1
5.14632e-07
1
1
1
1
1
1
1
1
5.14632e-07
1
1
1
2.35021e-07
1
2.77642e-07
2.65777e-07
9.05573e-07
2.13647e-07
1
1
1
1
1
1
1
1
1
1
1
1
0.974348
2.14686e-07
1
1
3.25041e-07
1
3.25972e-07
1
1
1
1
1
1
1
1
1
1
1
1
1
1
3.25972e-07
1
3.25041e-07
1
1
2.14686e-07
0.974349
1
1
1
1
1
1
1
1
1
1
1
2.47766e-07
1
1
1
3.64102e-07
1
3.62799e-07
1
4.9758e-07
1
1
1
1
1
1
1
1
1
1
1
1
4.9758e-07
1
3.62799e-07
1
3.64102e-07
1
1
1
2.47766e-07
1
1
1
1
1
1
1
1
1
1
1
2.79991e-07
1
3.35858e-07
1
4.07895e-07
1
4.80139e-07
1
1
1
1
1
1
1
1
1
1
1
1
1
1
4.80139e-07
1
4.07895e-07
1
3.35858e-07
1
2.79991e-07
1
1
1
1
1
1
1
1
1
1
2.47006e-07
1
1
2.88239e-07
1
3.86989e-07
1
4.63642e-07
1
1
5.78965e-07
1
1
1
1
1
1
1
1
1
1
5.78965e-07
1
1
4.63642e-07
1
3.86989e-07
1
2.88239e-07
1
1
2.47006e-07
1
1
1
1
1
1
1
1
2.33975e-07
1
3.37788e-07
1
3.92732e-07
1
4.74375e-07
1
1
4.98466e-07
1
1.54186e-06
1
1
1
1
1
1
1
1
1.54186e-06
1
4.98466e-07
1
1
4.74375e-07
1
3.92732e-07
1
3.37788e-07
1
2.33975e-07
1
1
1
1
1
1
1
1
1
2.89767e-07
1
4.38961e-07
1
1.0377e-06
1
1
5.06809e-07
1
6.51082e-07
1
7.50973e-07
1
1.65966e-06
1
1
1.65966e-06
1
7.50973e-07
1
6.51082e-07
1
5.06809e-07
1
1
1.0377e-06
1
4.38961e-07
1
2.89767e-07
1
1
1
1
1
1
1
1
1
1
1
1
1
9.07332e-07
1
1
4.04732e-07
1
4.82894e-07
1
5.56952e-07
1
5.67564e-07
1
0.921079
0.921079
1
5.67564e-07
1
5.56952e-07
1
4.82894e-07
1
4.04732e-07
1
1
9.07332e-07
1
1
1
1
1
1
1
1
1
1
1
1
1
1
1
9.46575e-07
1
1.22062e-06
4.55698e-07
1
4.24664e-07
1
5.05244e-07
1
4.73807e-07
1
5.46001e-07
1
1
5.46001e-07
1
4.73807e-07
1
5.05244e-07
1
4.24664e-07
1
4.55698e-07
1.22062e-06
1
9.46575e-07
1
1
1
1
1
1
1
1
1
1
1
1
1
4.6041e-06
1
4.33836e-07
1
1
5.34884e-07
1
6.82948e-07
1
3.93118e-07
1
4.91099e-07
1
1.64746e-06
1.64746e-06
1
4.91099e-07
1
3.93118e-07
1
6.82948e-07
1
5.34884e-07
1
1
4.33836e-07
1
4.6041e-06
1
1
1
1
1
1
1
1
1
1
1
6.04075e-07
1
4.28074e-07
1
4.2522e-07
1
3.91445e-07
1
1
3.93742e-07
1
4.18679e-07
1
6.81902e-07
1
1
6.81902e-07
1
4.18679e-07
1
3.93742e-07
1
1
3.91445e-07
1
4.2522e-07
1
4.28074e-07
1
6.04075e-07
1
1
1
1
1
6.43167e-07
1
1
1
1
1
4.72607e-07
1
2.92854e-07
1
2.16072e-07
1
4.43957e-07
1
1
3.89026e-07
1
1.8384e-06
1
0.868868
0.868861
1
1.8384e-06
1
3.89026e-07
1
1
4.43957e-07
1
2.16072e-07
1
2.92854e-07
1
4.72607e-07
1
1
1
1
1
6.43167e-07
2.69459e-07
1
1
1
1
1
1
2.82524e-07
1
2.20642e-07
1
2.22881e-07
1
6.76695e-07
1
0.928996
0.919447
2.52657e-05
0.824581
0.965883
0.965884
0.824582
2.52657e-05
0.919449
0.929003
1
6.76695e-07
1
2.22881e-07
1
2.20642e-07
1
2.82524e-07
1
1
1
1
1
1
2.69459e-07
2.55154e-07
1
1
1
1
1
2.62013e-07
1
2.9416e-07
1
1.89732e-07
1
3.42093e-07
1
4.04046e-07
1
4.50424e-07
1
7.43629e-07
0.849297
0.849301
7.43629e-07
1
4.50424e-07
1
4.04046e-07
1
3.42093e-07
1
1.89732e-07
1
2.9416e-07
1
2.62013e-07
1
1
1
1
1
2.55154e-07
2.26032e-07
2.03991e-07
1
1
1
1
3.8132e-07
1
1
1.84386e-07
1
3.40947e-07
1
3.42276e-07
1
3.89955e-07
1
6.21944e-07
1
7.06976e-06
7.06976e-06
1
6.21944e-07
1
3.89955e-07
1
3.42276e-07
1
3.40947e-07
1
1.84386e-07
1
1
3.8132e-07
1
1
1
1
2.03991e-07
2.26032e-07
1.92751e-07
1.68667e-07
1
1
1
1
1
1
2.28208e-07
1
3.42728e-07
1
3.15673e-07
1
3.86217e-07
1
5.67945e-07
1
1.02433e-06
0.77245
0.772462
1.02433e-06
1
5.67945e-07
1
3.86217e-07
1
3.15673e-07
1
3.42728e-07
1
2.28208e-07
1
1
1
1
1
1
1.68667e-07
1.92751e-07
1.69529e-07
1.67334e-07
2.34411e-07
1
1
1
1
2.62094e-07
1
3.30714e-07
1
2.73455e-07
1
3.8316e-07
1
5.45074e-07
1
8.87065e-07
0.915347
0.588499
0.58824
0.915275
8.87065e-07
1
5.45074e-07
1
3.8316e-07
1
2.73455e-07
1
3.30714e-07
1
2.62094e-07
1
1
1
1
2.34411e-07
1.67334e-07
1.69529e-07
1.49857e-07
1.21335e-07
2.06804e-07
1
1
1
1
1
4.45025e-07
1
2.09573e-07
1
4.08977e-07
1
5.05352e-07
1
9.79574e-07
1
7.08751e-07
0.702256
0.702315
7.08751e-07
1
9.79574e-07
1
5.05352e-07
1
4.08977e-07
1
2.09573e-07
1
4.45025e-07
1
1
1
1
1
2.06804e-07
1.21335e-07
1.49857e-07
1.21002e-07
1.0958e-07
1.49061e-07
1
1
1
1
1
2.72739e-07
1.06412e-06
1
4.22e-07
1
6.24156e-07
1
9.40862e-07
1
6.426e-07
1
8.81927e-07
8.81927e-07
1
6.426e-07
1
9.40862e-07
1
6.24156e-07
1
4.22e-07
1
1.06412e-06
2.72739e-07
1
1
1
1
1
1.49061e-07
1.0958e-07
1.21002e-07
1.11252e-07
9.98916e-08
1.15473e-07
2.21101e-07
1
1
1
1
1
2.08438e-07
1.24129e-06
1
1
1
1
1
1
0.875093
6.53165e-07
0.891067
0.891073
6.53165e-07
0.875123
1
1
1
1
1
1
1.24129e-06
2.08438e-07
1
1
1
1
1
2.21101e-07
1.15473e-07
9.98916e-08
1.11252e-07
1.00482e-07
8.77225e-08
9.83148e-08
1.38905e-07
3.91896e-07
1
1
1
1
2.91553e-07
1
1
4.03323e-07
1
5.79429e-07
1
1.41199e-05
1
0.000135722
0.699902
0.699899
0.000135722
1
1.41199e-05
1
5.79429e-07
1
4.03323e-07
1
1
2.91553e-07
1
1
1
1
3.91896e-07
1.38905e-07
9.83148e-08
8.77225e-08
1.00482e-07
1.0203e-07
9.5143e-08
8.99557e-08
9.57953e-08
1.94739e-07
1
1
1
1
1
2.89342e-07
2.96199e-07
1
3.46279e-07
1
3.82122e-07
1
5.49429e-07
1
0.000105378
0.000105378
1
5.49429e-07
1
3.82122e-07
1
3.46279e-07
1
2.96199e-07
2.89342e-07
1
1
1
1
1
1.94739e-07
9.57953e-08
8.99557e-08
9.5143e-08
1.0203e-07
9.68009e-08
9.23113e-08
8.75952e-08
8.99481e-08
1.2425e-07
2.6876e-07
1
1
1
1
2.57667e-07
1
2.45691e-07
1
2.06915e-07
1
3.48763e-07
1
4.35358e-07
0.841531
0.841534
4.35358e-07
1
3.48763e-07
1
2.06915e-07
1
2.45691e-07
1
2.57667e-07
1
1
1
1
2.6876e-07
1.2425e-07
8.99481e-08
8.75952e-08
9.23113e-08
9.68009e-08
7.7903e-08
7.7804e-08
7.90549e-08
8.05962e-08
9.05017e-08
1.65419e-07
1
1
1
1
1
1.61403e-07
1
1.51541e-07
1
1.84216e-07
1
3.60186e-07
1
5.92139e-07
5.92139e-07
1
3.60186e-07
1
1.84216e-07
1
1.51541e-07
1
1.61403e-07
1
1
1
1
1
1.65419e-07
9.05017e-08
8.05962e-08
7.90549e-08
7.7804e-08
7.7903e-08
7.20397e-08
7.20397e-08
7.20397e-08
7.33984e-08
7.79787e-08
1.06313e-07
2.27943e-07
1
1
1
1
1
1.25772e-07
3.90263e-07
1.41409e-07
1
4.92425e-07
1
4.05732e-07
1
1
4.05732e-07
1
4.92425e-07
1
1.41409e-07
3.90263e-07
1.25772e-07
1
1
1
1
1
2.27943e-07
1.06313e-07
7.79787e-08
7.33984e-08
7.20397e-08
7.20397e-08
7.20397e-08
7.20397e-08
7.20397e-08
7.20397e-08
7.20397e-08
7.2052e-08
8.0558e-08
1.4522e-07
3.08838e-07
1
1
1
1
1.85349e-07
1.22455e-07
2.90842e-07
1
1
1.72098e-07
1
0.670077
0.670077
1
1.72098e-07
1
1
2.90842e-07
1.22455e-07
1.85349e-07
1
1
1
1
3.08838e-07
1.4522e-07
8.0558e-08
7.2052e-08
7.20397e-08
7.20397e-08
7.20397e-08
7.20397e-08
7.20397e-08
7.20397e-08
7.20397e-08
7.20397e-08
7.20397e-08
7.20486e-08
8.73901e-08
1.89266e-07
1
1
1
1
1
1.27326e-07
1
1
1.72332e-07
1
1.75109e-07
1
1
1.75109e-07
1
1.72332e-07
1
1
1.27326e-07
1
1
1
1
1
1.89266e-07
8.73901e-08
7.20486e-08
7.20397e-08
7.20397e-08
7.20397e-08
7.20397e-08
7.20397e-08
7.20397e-08
7.20397e-08
7.20397e-08
7.20397e-08
7.20397e-08
7.20397e-08
7.42446e-08
1.04326e-07
2.28111e-07
1
1
1
1
1
1.09141e-07
1
1
1.272e-07
1
0.791745
0.791745
1
1.272e-07
1
1
1.09141e-07
1
1
1
1
1
2.28111e-07
1.04326e-07
7.42446e-08
7.20397e-08
7.20397e-08
7.20397e-08
7.20397e-08
7.20397e-08
7.20397e-08
7.20397e-08
7.20397e-08
7.20397e-08
7.20397e-08
7.20397e-08
7.20397e-08
7.20397e-08
7.94034e-08
1.26237e-07
2.77309e-07
1
1
1
1
1
1
1.09254e-07
1
1.1295e-07
1
1
1.1295e-07
1
1.09254e-07
1
1
1
1
1
1
2.77309e-07
1.26237e-07
7.94034e-08
7.20397e-08
7.20397e-08
7.20397e-08
7.20397e-08
7.20397e-08
7.20397e-08
7.20397e-08
7.20397e-08
7.20397e-08
7.20397e-08
7.20397e-08
7.20397e-08
7.20397e-08
7.20397e-08
7.20397e-08
8.79629e-08
1.50111e-07
3.08896e-07
1
1
1
1
1.04706e-07
1
1.05097e-07
1
1.32914e-07
1.32914e-07
1
1.05097e-07
1
1.04706e-07
1
1
1
1
3.08896e-07
1.50111e-07
8.79629e-08
7.20397e-08
7.20397e-08
7.20397e-08
7.20397e-08
7.20397e-08
7.20397e-08
7.20397e-08
7.20397e-08
7.20397e-08
7.20397e-08
7.20397e-08
7.20397e-08
7.20397e-08
7.20397e-08
7.20397e-08
7.20397e-08
7.20397e-08
9.75062e-08
1.76211e-07
2.96429e-07
1
1
1
1
9.30129e-08
1
1.14746e-07
3.03317e-07
3.03317e-07
1.14746e-07
1
9.30129e-08
1
1
1
1
2.96429e-07
1.76211e-07
9.75062e-08
7.20397e-08
7.20397e-08
7.20397e-08
7.20397e-08
7.20397e-08
7.20397e-08
7.20397e-08
7.20397e-08
7.20397e-08
7.20397e-08
7.20397e-08
7.20397e-08
7.20397e-08
7.20397e-08
7.20397e-08
7.20397e-08
7.20397e-08
7.20397e-08
7.67528e-08
1.08506e-07
1.8874e-07
3.13673e-07
1
1
1
1
1
1
2.95845e-07
2.95845e-07
1
1
1
1
1
1
3.13673e-07
1.8874e-07
1.08506e-07
7.67528e-08
7.20397e-08
7.20397e-08
7.20397e-08
7.20397e-08
7.20397e-08
7.20397e-08
7.20397e-08
7.20397e-08
7.20397e-08
7.20397e-08
7.20397e-08
7.20397e-08
7.20397e-08
7.20397e-08
7.20397e-08
7.20397e-08
7.20397e-08
7.20397e-08
7.20397e-08
8.47677e-08
1.26062e-07
1.93756e-07
3.40464e-07
1
1
1
1
1
1
1
1
1
1
1
1
3.40464e-07
1.93756e-07
1.26062e-07
8.47677e-08
7.20397e-08
7.20397e-08
7.20397e-08
7.20397e-08
7.20397e-08
7.20397e-08
7.20397e-08
7.20397e-08
7.20397e-08
7.20397e-08
7.20397e-08
7.20397e-08
7.20397e-08
7.20397e-08
7.20397e-08
7.20397e-08
7.20397e-08
7.20397e-08
7.20397e-08
7.20397e-08
7.47475e-08
9.29074e-08
1.22607e-07
1.91041e-07
1
1
1
1
1.20261e-07
1
1
1.20261e-07
1
1
1
1
1.91041e-07
1.22607e-07
9.29074e-08
7.47475e-08
7.20397e-08
7.20397e-08
7.20397e-08
7.20397e-08
7.20397e-08
7.20397e-08
7.20397e-08
7.20397e-08
7.20397e-08
7.20397e-08
7.20397e-08
7.20397e-08
7.20397e-08
7.20397e-08
7.20397e-08
7.20397e-08
7.20397e-08
7.20397e-08
7.20397e-08
7.20397e-08
7.20397e-08
8.39336e-08
9.80501e-08
1.23484e-07
1.74172e-07
1
1
1
1
1
1
1
1
1
1
1.74172e-07
1.23484e-07
9.80501e-08
8.39336e-08
7.20397e-08
7.20397e-08
7.20397e-08
7.20397e-08
7.20397e-08
7.20397e-08
7.20397e-08
7.20397e-08
7.20397e-08
7.20397e-08
7.20397e-08
7.20397e-08
7.20397e-08
7.20397e-08
7.20397e-08
7.20397e-08
7.20397e-08
7.20397e-08
7.20397e-08
7.20397e-08
7.20397e-08
7.20397e-08
7.4994e-08
8.60208e-08
9.74654e-08
1.19342e-07
1.75061e-07
1
1
1
1
1
1
1
1
1.75061e-07
1.19342e-07
9.74654e-08
8.60208e-08
7.4994e-08
7.20397e-08
7.20397e-08
7.20397e-08
7.20397e-08
7.20397e-08
7.20397e-08
7.20397e-08
7.20397e-08
7.20397e-08
7.20397e-08
7.20397e-08
7.20397e-08
7.20397e-08
7.20397e-08
7.20397e-08
7.20397e-08
7.20397e-08
7.20397e-08
7.20397e-08
7.20397e-08
7.20397e-08
7.20397e-08
7.20397e-08
9.56735e-08
9.74654e-08
1.15013e-07
1.31865e-07
1.78406e-07
1
1
1
1
1
1
1.78406e-07
1.31865e-07
1.15013e-07
9.74654e-08
9.56735e-08
7.20397e-08
7.20397e-08
7.20397e-08
7.20397e-08
7.20397e-08
7.20397e-08
7.20397e-08
7.20397e-08
7.20397e-08
7.20397e-08
7.20397e-08
7.20397e-08
