# vtk DataFile Version 4.1
vtk output
ASCII
DATASET UNSTRUCTURED_GRID

POINTS	29601	float
0	0	0.0	
0	0.0816327	0.0	
0	0.163265	0.0	
0	0.244898	0.0	
0	0.326531	0.0	
0	0.408163	0.0	
0	0.489796	0.0	
0	0.571429	0.0	
0	0.653061	0.0	
0	0.734694	0.0	
0	0.816327	0.0	
0	0.897959	0.0	
0	0.979592	0.0	
0	1.06122	0.0	
0	1.14286	0.0	
0	1.22449	0.0	
0	1.30612	0.0	
0	1.38776	0.0	
0	1.46939	0.0	
0	1.55102	0.0	
0	1.63265	0.0	
0	1.71429	0.0	
0	1.79592	0.0	
0	1.87755	0.0	
0	1.95918	0.0	
0	2.04082	0.0	
0	2.12245	0.0	
0	2.20408	0.0	
0	2.28571	0.0	
0	2.36735	0.0	
0	2.44898	0.0	
0	2.53061	0.0	
0	2.61224	0.0	
0	2.69388	0.0	
0	2.77551	0.0	
0	2.85714	0.0	
0	2.93878	0.0	
0	3.02041	0.0	
0	3.10204	0.0	
0	3.18367	0.0	
0	3.26531	0.0	
0	3.34694	0.0	
0	3.42857	0.0	
0	3.5102	0.0	
0	3.59184	0.0	
0	3.67347	0.0	
0	3.7551	0.0	
0	3.83673	0.0	
0	3.91837	0.0	
0	4	0.0	
0.000740205	4.09424	0.0	
0.00296064	4.18846	0.0	
0.00666075	4.28264	0.0	
0.0118396	4.37674	0.0	
0.018496	4.47075	0.0	
0.0266282	4.56465	0.0	
0.0362343	4.65841	0.0	
0.0473118	4.752	0.0	
0.0598581	4.84541	0.0	
0.07387	4.93861	0.0	
0.089344	5.03157	0.0	
0.106276	5.12429	0.0	
0.124663	5.21672	0.0	
0.144499	5.30886	0.0	
0.16578	5.40067	0.0	
0.188501	5.49214	0.0	
0.212655	5.58324	0.0	
0.238238	5.67395	0.0	
0.265242	5.76424	0.0	
0.293661	5.8541	0.0	
0.323488	5.9435	0.0	
0.354715	6.03243	0.0	
0.387336	6.12085	0.0	
0.421341	6.20875	0.0	
0.456723	6.2961	0.0	
0.493472	6.38289	0.0	
0.53158	6.46909	0.0	
0.571038	6.55468	0.0	
0.611835	6.63964	0.0	
0.653961	6.72394	0.0	
0.697406	6.80758	0.0	
0.74216	6.89052	0.0	
0.788211	6.97275	0.0	
0.835548	7.05425	0.0	
0.884159	7.13499	0.0	
0.934032	7.21496	0.0	
0.985156	7.29414	0.0	
1.03752	7.3725	0.0	
1.0911	7.45003	0.0	
1.1459	7.52671	0.0	
1.20189	7.60252	0.0	
1.25907	7.67744	0.0	
1.31742	7.75146	0.0	
1.37692	7.82454	0.0	
1.43756	7.89669	0.0	
1.49933	7.96787	0.0	
1.56221	8.03808	0.0	
1.62619	8.10728	0.0	
1.69124	8.17548	0.0	
1.75736	8.24264	0.0	
1.82452	8.30876	0.0	
1.89272	8.37381	0.0	
1.96192	8.43779	0.0	
2.03213	8.50067	0.0	
2.10331	8.56244	0.0	
2.17546	8.62308	0.0	
2.24854	8.68258	0.0	
2.32256	8.74093	0.0	
2.39748	8.79811	0.0	
2.47329	8.8541	0.0	
2.54997	8.9089	0.0	
2.6275	8.96248	0.0	
2.70586	9.01484	0.0	
2.78504	9.06597	0.0	
2.86501	9.11584	0.0	
2.94575	9.16445	0.0	
3.02725	9.21179	0.0	
3.10948	9.25784	0.0	
3.19242	9.30259	0.0	
3.27606	9.34604	0.0	
3.36036	9.38817	0.0	
3.44532	9.42896	0.0	
3.53091	9.46842	0.0	
3.61711	9.50653	0.0	
3.7039	9.54328	0.0	
3.79125	9.57866	0.0	
3.87915	9.61266	0.0	
3.96757	9.64528	0.0	
4.0565	9.67651	0.0	
4.1459	9.70634	0.0	
4.23576	9.73476	0.0	
4.32605	9.76176	0.0	
4.41676	9.78734	0.0	
4.50786	9.8115	0.0	
4.59933	9.83422	0.0	
4.69114	9.8555	0.0	
4.78328	9.87534	0.0	
4.87571	9.89372	0.0	
4.96843	9.91066	0.0	
5.06139	9.92613	0.0	
5.15459	9.94014	0.0	
5.248	9.95269	0.0	
5.34159	9.96377	0.0	
5.43535	9.97337	0.0	
5.52925	9.9815	0.0	
5.62326	9.98816	0.0	
5.71736	9.99334	0.0	
5.81154	9.99704	0.0	
5.90576	9.99926	0.0	
6	10	0.0	
6.08163	10	0.0	
6.16327	10	0.0	
6.2449	10	0.0	
6.32653	10	0.0	
6.40816	10	0.0	
6.4898	10	0.0	
6.57143	10	0.0	
6.65306	10	0.0	
6.73469	10	0.0	
6.81633	10	0.0	
6.89796	10	0.0	
6.97959	10	0.0	
7.06122	10	0.0	
7.14286	10	0.0	
7.22449	10	0.0	
7.30612	10	0.0	
7.38776	10	0.0	
7.46939	10	0.0	
7.55102	10	0.0	
7.63265	10	0.0	
7.71429	10	0.0	
7.79592	10	0.0	
7.87755	10	0.0	
7.95918	10	0.0	
8.04082	10	0.0	
8.12245	10	0.0	
8.20408	10	0.0	
8.28571	10	0.0	
8.36735	10	0.0	
8.44898	10	0.0	
8.53061	10	0.0	
8.61224	10	0.0	
8.69388	10	0.0	
8.77551	10	0.0	
8.85714	10	0.0	
8.93878	10	0.0	
9.02041	10	0.0	
9.10204	10	0.0	
9.18367	10	0.0	
9.26531	10	0.0	
9.34694	10	0.0	
9.42857	10	0.0	
9.5102	10	0.0	
9.59184	10	0.0	
9.67347	10	0.0	
9.7551	10	0.0	
9.83673	10	0.0	
9.91837	10	0.0	
10	10	0.0	
0.0816327	0	0.0	
0.0817269	0.0815353	0.0	
0.0818217	0.16307	0.0	
0.0819174	0.244604	0.0	
0.0820145	0.326137	0.0	
0.0821133	0.407668	0.0	
0.0822142	0.489198	0.0	
0.0823176	0.570725	0.0	
0.0824239	0.652251	0.0	
0.0825336	0.733773	0.0	
0.082647	0.815293	0.0	
0.0827647	0.896809	0.0	
0.0828872	0.978322	0.0	
0.0830148	1.05983	0.0	
0.0831482	1.14133	0.0	
0.0832878	1.22283	0.0	
0.0834343	1.30433	0.0	
0.0835883	1.38582	0.0	
0.0837504	1.4673	0.0	
0.0839212	1.54878	0.0	
0.0841015	1.63026	0.0	
0.084292	1.71172	0.0	
0.0844936	1.79318	0.0	
0.0847071	1.87464	0.0	
0.0849333	1.95609	0.0	
0.0851734	2.03753	0.0	
0.0854283	2.11896	0.0	
0.0856992	2.20039	0.0	
0.0859872	2.28182	0.0	
0.0862938	2.36323	0.0	
0.0866203	2.44464	0.0	
0.0869684	2.52605	0.0	
0.0873397	2.60745	0.0	
0.0877362	2.68885	0.0	
0.0881599	2.77025	0.0	
0.0886132	2.85165	0.0	
0.0890988	2.93305	0.0	
0.0896196	3.01446	0.0	
0.0901792	3.09588	0.0	
0.0907815	3.17732	0.0	
0.0914313	3.25878	0.0	
0.0921344	3.34027	0.0	
0.0928977	3.42181	0.0	
0.0937304	3.50341	0.0	
0.0946442	3.58512	0.0	
0.0956556	3.66697	0.0	
0.096789	3.74905	0.0	
0.0980835	3.83153	0.0	
0.0996105	3.91476	0.0	
0.101521	3.99958	0.0	
0.104199	4.08838	0.0	
0.107959	4.17889	0.0	
0.112942	4.27016	0.0	
0.119217	4.3618	0.0	
0.126823	4.4536	0.0	
0.135783	4.54544	0.0	
0.146111	4.63724	0.0	
0.157818	4.72895	0.0	
0.170909	4.82052	0.0	
0.185388	4.91192	0.0	
0.201257	5.00312	0.0	
0.218516	5.09408	0.0	
0.237165	5.18478	0.0	
0.257202	5.27519	0.0	
0.278625	5.36529	0.0	
0.301431	5.45505	0.0	
0.325615	5.54445	0.0	
0.351175	5.63346	0.0	
0.378104	5.72206	0.0	
0.406398	5.81023	0.0	
0.436051	5.89795	0.0	
0.467056	5.9852	0.0	
0.499407	6.07195	0.0	
0.533096	6.15818	0.0	
0.568117	6.24387	0.0	
0.604462	6.329	0.0	
0.642121	6.41355	0.0	
0.681087	6.49749	0.0	
0.72135	6.58082	0.0	
0.762902	6.6635	0.0	
0.805732	6.74552	0.0	
0.84983	6.82685	0.0	
0.895187	6.90749	0.0	
0.941791	6.9874	0.0	
0.989632	7.06658	0.0	
1.0387	7.14499	0.0	
1.08898	7.22262	0.0	
1.14046	7.29946	0.0	
1.19313	7.37548	0.0	
1.24698	7.45067	0.0	
1.30199	7.525	0.0	
1.35815	7.59846	0.0	
1.41545	7.67104	0.0	
1.47387	7.74271	0.0	
1.53341	7.81346	0.0	
1.59404	7.88327	0.0	
1.65575	7.95212	0.0	
1.71853	8.02	0.0	
1.78236	8.08689	0.0	
1.84722	8.15278	0.0	
1.91311	8.21764	0.0	
1.98	8.28147	0.0	
2.04788	8.34425	0.0	
2.11673	8.40596	0.0	
2.18654	8.46659	0.0	
2.25729	8.52612	0.0	
2.32896	8.58455	0.0	
2.40154	8.64185	0.0	
2.475	8.69801	0.0	
2.54933	8.75302	0.0	
2.62452	8.80687	0.0	
2.70054	8.85954	0.0	
2.77738	8.91102	0.0	
2.85501	8.9613	0.0	
2.93342	9.01037	0.0	
3.0126	9.05821	0.0	
3.09251	9.10481	0.0	
3.17314	9.15017	0.0	
3.25448	9.19427	0.0	
3.3365	9.2371	0.0	
3.41918	9.27865	0.0	
3.50251	9.31891	0.0	
3.58645	9.35788	0.0	
3.671	9.39554	0.0	
3.75613	9.43188	0.0	
3.84182	9.4669	0.0	
3.92805	9.50059	0.0	
4.0148	9.53294	0.0	
4.10204	9.56395	0.0	
4.18976	9.5936	0.0	
4.27794	9.6219	0.0	
4.36654	9.64882	0.0	
4.45555	9.67438	0.0	
4.54495	9.69857	0.0	
4.63471	9.72137	0.0	
4.72481	9.7428	0.0	
4.81522	9.76283	0.0	
4.90592	9.78148	0.0	
4.99688	9.79874	0.0	
5.08808	9.81461	0.0	
5.17948	9.82909	0.0	
5.27105	9.84218	0.0	
5.36276	9.85389	0.0	
5.45456	9.86422	0.0	
5.5464	9.87318	0.0	
5.6382	9.88078	0.0	
5.72984	9.88706	0.0	
5.82111	9.89204	0.0	
5.91162	9.8958	0.0	
6.00042	9.89848	0.0	
6.08524	9.90039	0.0	
6.16847	9.90192	0.0	
6.25095	9.90321	0.0	
6.33303	9.90434	0.0	
6.41488	9.90536	0.0	
6.49659	9.90627	0.0	
6.57819	9.9071	0.0	
6.65973	9.90787	0.0	
6.74122	9.90857	0.0	
6.82268	9.90922	0.0	
6.90412	9.90982	0.0	
6.98554	9.91038	0.0	
7.06695	9.9109	0.0	
7.14835	9.91139	0.0	
7.22975	9.91184	0.0	
7.31115	9.91226	0.0	
7.39255	9.91266	0.0	
7.47395	9.91303	0.0	
7.55536	9.91338	0.0	
7.63677	9.91371	0.0	
7.71818	9.91401	0.0	
7.79961	9.9143	0.0	
7.88104	9.91457	0.0	
7.96247	9.91483	0.0	
8.04391	9.91507	0.0	
8.12536	9.91529	0.0	
8.20681	9.91551	0.0	
8.28828	9.91571	0.0	
8.36974	9.9159	0.0	
8.45122	9.91608	0.0	
8.5327	9.91625	0.0	
8.61418	9.91641	0.0	
8.69567	9.91657	0.0	
8.77717	9.91671	0.0	
8.85867	9.91685	0.0	
8.94017	9.91699	0.0	
9.02168	9.91711	0.0	
9.10319	9.91724	0.0	
9.18471	9.91735	0.0	
9.26623	9.91747	0.0	
9.34775	9.91758	0.0	
9.42927	9.91768	0.0	
9.5108	9.91779	0.0	
9.59233	9.91789	0.0	
9.67386	9.91799	0.0	
9.7554	9.91808	0.0	
9.83693	9.91818	0.0	
9.91846	9.91827	0.0	
10	9.91837	0.0	
0.163265	0	0.0	
0.163453	0.0814384	0.0	
0.163642	0.162876	0.0	
0.163833	0.244312	0.0	
0.164027	0.325745	0.0	
0.164224	0.407176	0.0	
0.164425	0.488603	0.0	
0.164631	0.570026	0.0	
0.164843	0.651445	0.0	
0.165061	0.732858	0.0	
0.165287	0.814265	0.0	
0.165522	0.895665	0.0	
0.165765	0.977059	0.0	
0.16602	1.05844	0.0	
0.166285	1.13982	0.0	
0.166563	1.22119	0.0	
0.166855	1.30255	0.0	
0.167161	1.3839	0.0	
0.167484	1.46523	0.0	
0.167824	1.54656	0.0	
0.168182	1.62788	0.0	
0.168561	1.70918	0.0	
0.168962	1.79047	0.0	
0.169386	1.87175	0.0	
0.169836	1.95301	0.0	
0.170312	2.03426	0.0	
0.170818	2.1155	0.0	
0.171356	2.19673	0.0	
0.171928	2.27794	0.0	
0.172536	2.35914	0.0	
0.173184	2.44033	0.0	
0.173874	2.52151	0.0	
0.17461	2.60269	0.0	
0.175395	2.68386	0.0	
0.176234	2.76502	0.0	
0.177131	2.84618	0.0	
0.178092	2.92735	0.0	
0.179122	3.00853	0.0	
0.180228	3.08973	0.0	
0.181418	3.17096	0.0	
0.182701	3.25223	0.0	
0.184087	3.33355	0.0	
0.185592	3.41496	0.0	
0.18723	3.49649	0.0	
0.189026	3.57818	0.0	
0.191006	3.66011	0.0	
0.193214	3.7424	0.0	
0.195709	3.82521	0.0	
0.198583	3.90885	0.0	
0.201983	3.99377	0.0	
0.206125	4.08051	0.0	
0.2112	4.16859	0.0	
0.21734	4.25753	0.0	
0.224632	4.34698	0.0	
0.233131	4.43672	0.0	
0.242877	4.5266	0.0	
0.253895	4.61652	0.0	
0.266203	4.7064	0.0	
0.279816	4.7962	0.0	
0.294742	4.88585	0.0	
0.310989	4.97532	0.0	
0.328561	5.06457	0.0	
0.347459	5.15357	0.0	
0.367687	5.2423	0.0	
0.389242	5.33071	0.0	
0.412126	5.4188	0.0	
0.436334	5.50653	0.0	
0.461866	5.59388	0.0	
0.488717	5.68083	0.0	
0.516883	5.76735	0.0	
0.54636	5.85342	0.0	
0.577143	5.93902	0.0	
0.609225	6.02413	0.0	
0.642601	6.10873	0.0	
0.677264	6.19279	0.0	
0.713207	6.27629	0.0	
0.750423	6.35922	0.0	
0.788903	6.44156	0.0	
0.82864	6.52328	0.0	
0.869624	6.60437	0.0	
0.911847	6.68481	0.0	
0.9553	6.76457	0.0	
0.999973	6.84364	0.0	
1.04586	6.922	0.0	
1.09294	6.99963	0.0	
1.14121	7.07652	0.0	
1.19066	7.15264	0.0	
1.24128	7.22798	0.0	
1.29305	7.30252	0.0	
1.34596	7.37624	0.0	
1.40001	7.44913	0.0	
1.45517	7.52116	0.0	
[...]
CELL_DATA	9702
SCALARS Rho float
LOOKUP_TABLE default
1
1
1
1
1
1
1
1
1
1
1
1
1
1
1
1
1
1
1
1
1
1
1
1
1
1
1
1
1
1
1
1
1
1
1
1
1
1
1
1
1
1
1
1
1
1
1
1
1
1
1
1
1
1
1
1
1
1
1
1
1
1
1
1
1
1
1
1
1
1
1
1
1
1
1
1
1
1
1
1
1
1
1
1
1
1
1
1
1
1
1
1
1
1
1
1
1
1
1
0.965524
0.535166
0.1753
0.137173
0.116292
0.093195
0.0792729
0.0736752
0.0628941
0.0578491
0.0524906
0.0494102
0.0457425
0.0428206
0.0407846
0.0389974
0.0358761
0.0334802
0.0321756
0.0308467
0.0298797
0.0286823
0.0275598
0.0265043
0.0255129
0.0245818
0.0244742
0.0252219
0.0248634
0.0241777
0.0233806
0.0227997
0.0227997
0.0227997
0.0227997
0.0227997
0.0227997
0.0227997
0.0227997
0.0227997
0.0227997
0.0227997
0.0227997
0.0227997
0.0227997
0.0227997
0.0227997
0.0227997
0.0227997
0.0227997
0.0227997
0.0227997
0.0227997
0.0227997
0.0227997
0.0227997
0.0227997
0.0227997
0.0227997
0.0227997
0.0227997
0.0227997
0.0227997
0.0227997
0.0227997
0.0227997
0.0227997
0.0227997
0.0227997
0.0227997
0.0227997
0.0227997
0.0227997
0.0227997
0.0227997
0.0227997
0.0227997
0.0227997
0.0227997
0.0227997
0.0227997
0.0227997
0.0227997
0.0227997
0.0227997
0.0227997
0.0227997
0.0227997
0.0227997
0.0227997
0.0227997
0.0227997
0.0227997
0.0227997
0.0227997
0.0227997
0.0227997
0.0227997
0.0227997
1
1
1
1
1
1
1
1
1
1
1
1
1
1
1
1
1
1
1
1
1
1
1
1
1
1
1
1
1
1
1
1
1
1
1
1
1
1
1
1
1
1
1
1
1
1
1
1
1
1
1
1
1
1
1
1
1
1
1
1
1
1
1
1
1
1
1
1
1
1
1
1
1
1
1
1
1
1
1
0.904357
0.905878
0.791789
0.653474
0.58521
0.138551
0.0743748
0.0634916
0.102557
0.291781
0.172294
0.137688
0.14397
0.161579
0.183452
0.390785
0.515556
0.717853
1
1
1
1
1
1
0.879667
0.192629
0.121849
0.0911538
0.074471
0.0674384
0.0557123
0.0518482
0.0469882
0.0420308
0.0394192
0.0383511
0.0366277
0.0335613
0.0326207
0.0308467
0.0303842
0.029248
0.0281777
0.0271695
0.0262197
0.025325
0.0244827
0.0247214
0.0249238
0.0244823
0.0238634
0.0231577
0.0227997
0.0227997
0.0227997
0.0227997
0.0227997
0.0227997
0.0227997
0.0227997
0.0227997
0.0227997
0.0227997
0.0227997
0.0227997
0.0227997
0.0227997
0.0227997
0.0227997
0.0227997
0.0227997
0.0227997
0.0227997
0.0227997
0.0227997
0.0227997
0.0227997
0.0227997
0.0227997
0.0227997
0.0227997
0.0227997
0.0227997
0.0227997
0.0227997
0.0227997
0.0227997
0.0227997
0.0227997
0.0227997
0.0227997
0.0227997
0.0227997
0.0227997
0.0227997
0.0227997
0.0227997
0.0227997
0.0227997
0.0227997
0.0227997
0.0227997
0.0227997
0.0227997
0.0227997
0.0227997
0.0227997
0.0227997
0.0227997
0.0227997
0.0227997
0.0227997
0.0227997
0.0227997
0.0227997
0.0227997
0.0227997
0.0227997
0.0227997
1
1
1
1
1
1
1
1
1
1
1
1
1
1
1
1
1
1
1
1
1
1
1
1
1
1
1
1
1
1
1
1
1
1
1
1
1
1
1
1
1
1
1
1
1
1
1
1
1
1
1
1
1
1
1
1
1
1
1
1
1
0.165995
0.0993337
0.0834192
0.086761
0.355255
0.105815
0.103382
0.110317
0.141344
0.279269
0.449109
0.12431
0.0966259
0.0795979
0.0745037
0.0783512
0.0859212
0.102502
0.132969
0.177359
0.42857
0.632923
0.516523
0.328549
0.289981
0.259935
0.23252
0.288163
0.202287
0.17646
0.187714
0.19905
0.217118
0.34167
0.48896
0.604626
0.868988
0.269384
0.423478
0.901247
1
1
1
1
1
1
0.274187
0.127199
0.095891
0.0755306
0.0626642
0.0555325
0.0458737
0.0396268
0.0373459
0.0352693
0.0340475
0.0323916
0.0308238
0.0297625
0.0287539
0.0277973
0.0268914
0.0260345
0.0252247
0.0246365
0.0247877
0.0247962
0.0244129
0.0238341
0.0231941
0.0227997
0.0227997
0.0227997
0.0227997
0.0227997
0.0227997
0.0227997
0.0227997
0.0227997
0.0227997
0.0227997
0.0227997
0.0227997
0.0227997
0.0227997
0.0227997
0.0227997
0.0227997
0.0227997
0.0227997
0.0227997
0.0227997
0.0227997
0.0227997
0.0227997
0.0227997
0.0227997
0.0227997
0.0227997
0.0227997
0.0227997
0.0227997
0.0227997
0.0227997
0.0227997
0.0227997
0.0227997
0.0227997
0.0227997
0.0227997
0.0227997
0.0227997
0.0227997
0.0227997
0.0227997
0.0227997
0.0227997
0.0227997
0.0227997
0.0227997
0.0227997
0.0227997
0.0227997
0.0227997
0.0227997
0.0227997
0.0227997
0.0227997
0.0227997
0.0227997
0.0227997
0.0227997
0.0227997
0.0227997
0.0227997
0.0227997
1
1
1
1
1
1
1
1
1
1
1
1
1
1
1
1
1
1
1
1
1
1
1
1
1
1
1
1
1
1
1
1
1
1
1
1
1
1
1
1
1
1
1
1
1
1
1
1
1
1
1
0.916031
1
1
1
1
1
1
1
1
1
1
1
1
0.790401
0.149606
0.115853
0.109575
0.129439
0.162965
0.396343
0.377012
0.112958
0.095315
0.0862958
0.0847024
0.0854133
0.0908477
0.106428
0.126371
0.206556
0.540307
0.537629
0.275717
0.19557
0.214531
0.262784
0.306662
0.309799
0.287133
0.285879
0.267659
0.25133
0.245711
0.318868
0.478547
0.665607
0.892228
0.26542
0.22663
0.289098
0.154341
0.170565
0.829211
1
1
1
1
1
1
0.184198
0.11555
0.0877206
0.0696869
0.0570935
0.0489911
0.043661
0.0387299
0.0368611
0.0344436
0.0313923
0.0292857
0.0284463
0.0276857
0.026837
0.0259293
0.0251937
0.0249959
0.024993
0.0248308
0.0245288
0.0239498
0.023387
0.0227997
0.0227997
0.0227997
0.0227997
0.0227997
0.0227997
0.0227997
0.0227997
0.0227997
0.0227997
0.0227997
0.0227997
0.0227997
0.0227997
0.0227997
0.0227997
0.0227997
0.0227997
0.0227997
0.0227997
0.0227997
0.0227997
0.0227997
0.0227997
0.0227997
0.0227997
0.0227997
0.0227997
0.0227997
0.0227997
0.0227997
0.0227997
0.0227997
0.0227997
0.0227997
0.0227997
0.0227997
0.0227997
0.0227997
0.0227997
0.0227997
0.0227997
0.0227997
0.0227997
0.0227997
0.0227997
0.0227997
0.0227997
0.0227997
0.0227997
0.0227997
0.0227997
0.0227997
0.0227997
0.0227997
0.0227997
0.0227997
0.0227997
0.0227997
0.0227997
0.0227997
0.0227997
0.0227997
0.0227997
0.0227997
1
1
1
1
1
1
1
1
1
1
1
1
1
1
0.140256
0.0863729
0.084392
0.0847349
0.0887867
0.119088
1
1
1
1
1
1
1
1
1
1
0.955821
0.838028
0.787773
0.73084
0.640168
0.565632
0.558075
0.53212
0.464311
0.397727
0.37786
0.452776
0.709457
1
1
1
1
1
1
1
1
1
1
1
1
1
1
1
1
1
1
1
1
1
1
1
1
0.851826
0.211865
0.185844
0.426566
0.224824
0.113173
0.102018
0.0952451
0.0935497
0.095821
0.101638
0.114547
0.135648
0.361595
0.537351
0.464649
0.163264
0.126629
0.131113
0.13989
0.163792
0.175959
0.192336
0.209178
0.214575
0.213715
0.215626
0.267024
0.437841
0.69996
0.891118
0.277189
0.228654
0.275635
0.199631
0.220788
0.609999
0.195805
0.216515
0.857223
1
1
1
1
1
0.859424
0.136951
0.0996349
0.0759422
0.0600999
0.0518787
0.0439019
0.0419832
0.0389482
0.0350155
0.0313632
0.0306021
0.0297411
0.0287431
0.0276223
0.0256799
0.0255303
0.0254007
0.0251122
0.0247751
0.0241751
0.0236817
0.0231542
0.0227997
0.0227997
0.0227997
0.0227997
0.0227997
0.0227997
0.0227997
0.0227997
0.0227997
0.0227997
0.0227997
0.0227997
0.0227997
0.0227997
0.0227997
0.0227997
0.0227997
0.0227997
0.0227997
0.0227997
0.0227997
0.0227997
0.0227997
0.0227997
0.0227997
0.0227997
0.0227997
0.0227997
0.0227997
0.0227997
0.0227997
0.0227997
0.0227997
0.0227997
0.0227997
0.0227997
0.0227997
0.0227997
0.0227997
0.0227997
0.0227997
0.0227997
0.0227997
0.0227997
0.0227997
0.0227997
0.0227997
0.0227997
0.0227997
0.0227997
0.0227997
0.0227997
0.0227997
0.0227997
0.0227997
0.0227997
0.0227997
0.0227997
0.0227997
0.0227997
0.0227997
0.0227997
0.0227997
1
1
1
1
1
1
1
1
1
1
1
1
1
1
0.0865441
0.0734118
0.0761212
0.0880159
1
1
1
1
1
1
1
1
1
1
1
0.991145
0.928466
0.849136
0.789506
0.758822
0.696747
0.642597
0.610356
0.580123
0.532305
0.491804
0.457098
0.432374
0.509427
0.630564
0.676615
0.556908
0.860748
1
1
1
1
1
1
1
1
1
1
1
1
1
1
1
1
1
1
1
1
1
1
1
0.860112
0.188652
0.138555
0.122103
0.113705
0.109238
0.110777
0.117902
0.126517
0.16245
0.496424
0.528527
0.335851
0.138265
0.119702
0.113727
0.115653
0.128953
0.149484
0.1613
0.167726
0.173603
0.187652
0.200672
0.226014
0.340394
0.772274
0.887833
0.291325
0.251873
0.25306
0.209824
0.269184
0.623758
0.237234
0.284336
0.471764
0.171672
0.623938
1
1
1
1
1
1
0.145305
0.106765
0.079307
0.0595402
0.0514235
0.0462517
0.042269
0.0378967
0.0339604
0.0331585
0.0321676
0.0309271
0.0286836
0.0263696
0.026244
0.0260219
0.0256632
0.0251378
0.0246222
0.0240391
0.023572
0.0230772
0.0227997
0.0227997
0.0227997
0.0227997
0.0227997
0.0227997
0.0227997
0.0227997
0.0227997
0.0227997
0.0227997
0.0227997
0.0227997
0.0227997
0.0227997
0.0227997
0.0227997
0.0227997
0.0227997
0.0227997
0.0227997
0.0227997
0.0227997
0.0227997
0.0227997
0.0227997
0.0227997
0.0227997
0.0227997
0.0227997
0.0227997
0.0227997
0.0227997
0.0227997
0.0227997
0.0227997
0.0227997
0.0227997
0.0227997
0.0227997
0.0227997
0.0227997
0.0227997
0.0227997
0.0227997
0.0227997
0.0227997
0.0227997
0.0227997
0.0227997
0.0227997
0.0227997
0.0227997
0.0227997
0.0227997
0.0227997
0.0227997
0.0227997
0.0227997
0.0227997
0.0227997
1
1
1
1
1
1
1
1
1
1
1
1
1
1
0.0924312
0.0830221
0.102065
1
1
1
1
1
1
1
1
1
1
1
1
0.991605
0.911295
0.884529
0.792299
0.747335
0.715231
0.67583
0.655016
0.614235
0.576057
0.540069
0.515854
0.506657
0.567294
0.668632
0.721005
0.686545
0.73762
0.791183
0.196204
0.179824
0.287367
0.707434
0.9947
1
1
1
1
1
1
1
1
1
1
1
1
1
1
1
1
1
1
1
1
1
0.489808
0.172228
0.145267
0.143866
0.145482
0.353407
0.52943
0.515487
0.191509
0.129984
0.123128
0.117521
0.117111
0.12634
0.141879
0.153009
0.154686
0.165739
0.176077
0.186821
0.223334
0.299024
0.821782
0.87431
0.360326
0.265457
0.259782
0.241251
0.313039
0.589742
0.274254
0.331379
0.446038
0.277894
0.549711
0.269804
0.337975
0.99155
1
1
1
1
1
0.160579
0.109261
0.0799815
0.0644598
0.0554905
0.0506223
0.0429179
0.0372893
0.03614
0.0344957
0.0319613
0.0295244
0.0273103
0.0271075
0.0268072
0.0263804
0.0257955
0.0251682
0.0245453
0.0240241
0.0235719
0.0230984
0.0227997
0.0227997
0.0227997
0.0227997
0.0227997
0.0227997
0.0227997
0.0227997
0.0227997
0.0227997
0.0227997
0.0227997
0.0227997
0.0227997
0.0227997
0.0227997
0.0227997
0.0227997
0.0227997
0.0227997
0.0227997
0.0227997
0.0227997
0.0227997
0.0227997
0.0227997
0.0227997
0.0227997
0.0227997
0.0227997
0.0227997
0.0227997
0.0227997
0.0227997
0.0227997
0.0227997
0.0227997
0.0227997
0.0227997
0.0227997
0.0227997
0.0227997
0.0227997
0.0227997
0.0227997
0.0227997
0.0227997
0.0227997
0.0227997
0.0227997
0.0227997
0.0227997
0.0227997
0.0227997
0.0227997
0.0227997
0.0227997
0.0227997
0.0227997
1
1
1
1
1
1
1
1
1
1
1
1
1
1
1
0.923416
1
1
1
1
1
1
1
1
1
1
1
1
0.966154
0.98754
0.973476
0.901052
0.857059
0.829476
0.762691
0.708988
0.684564
0.673713
0.620108
0.590755
0.575296
0.571257
0.602978
0.663113
0.751857
0.695083
0.656977
0.814602
0.532229
0.514692
0.483223
0.476401
0.407416
0.935457
0.966971
1
1
1
1
1
1
1
1
1
1
1
1
1
1
1
1
1
1
1
1
1
1
0.947107
0.780376
0.616552
0.558615
0.437168
0.169355
0.159459
0.149886
0.142531
0.13947
0.1386
0.148066
0.15689
0.161184
0.167062
0.177586
0.197857
0.221971
0.287373
0.82781
0.868737
0.478723
0.292223
0.284931
0.281175
0.373375
0.550494
0.328657
0.394885
0.444752
0.371032
0.546237
0.332804
0.492176
0.419863
0.415391
0.989748
1
1
1
1
1
0.153662
0.10857
0.0885107
0.0691873
0.0621692
0.0520308
0.0426366
0.0380129
0.0358483
0.0341054
0.0321617
0.0298503
0.0281218
0.0277602
0.0272851
0.0266797
0.0259299
0.0252386
0.0245717
0.0240636
0.0236286
0.0231717
0.0227997
0.0227997
0.0227997
0.0227997
0.0227997
0.0227997
0.0227997
0.0227997
0.0227997
0.0227997
0.0227997
0.0227997
0.0227997
0.0227997
0.0227997
0.0227997
0.0227997
0.0227997
0.0227997
0.0227997
0.0227997
0.0227997
0.0227997
0.0227997
0.0227997
0.0227997
0.0227997
0.0227997
0.0227997
0.0227997
0.0227997
0.0227997
0.0227997
0.0227997
0.0227997
0.0227997
0.0227997
0.0227997
0.0227997
0.0227997
0.0227997
0.0227997
0.0227997
0.0227997
0.0227997
0.0227997
0.0227997
0.0227997
0.0227997
0.0227997
0.0227997
0.0227997
0.0227997
0.0227997
0.0227997
0.0227997
0.0227997
1
1
1
1
1
1
1
1
1
1
1
1
1
1
1
1
1
1
1
1
1
1
1
1
1
1
1
1
1
1
1
0.976346
0.910336
0.869888
0.834668
0.777772
0.735963
0.707491
0.685898
0.660441
0.6357
0.630835
0.659673
0.729374
0.767754
0.789679
0.792549
0.829002
0.64836
0.605183
0.570898
0.556759
0.585368
0.950568
0.93312
0.900693
1
1
1
1
1
1
1
1
1
1
1
1
1
1
1
1
1
1
1
1
1
1
1
1
1
1
1
0.935205
0.831555
0.638115
0.435571
0.304032
0.255698
0.233656
0.219172
0.222221
0.233193
0.248424
0.265788
0.307361
0.848452
0.909909
0.656966
0.326024
0.279484
0.288609
0.430217
0.556582
0.476637
0.501893
0.517757
0.509156
0.552585
0.439139
0.520657
0.463224
0.582454
0.518509
0.641814
1
1
1
1
1
0.691124
0.1526
0.110244
0.0900598
0.071451
0.0620898
0.0566652
0.0501514
0.0420554
0.0401283
0.0375434
0.0341886
0.0309212
0.0288634
0.0283579
0.0277428
0.0270105
0.0261569
0.0253884
0.0246951
0.02415
0.0237298
0.0232823
0.0228245
0.0227997
0.0227997
0.0227997
0.0227997
0.0227997
0.0227997
0.0227997
0.0227997
0.0227997
0.0227997
0.0227997
0.0227997
0.0227997
0.0227997
0.0227997
0.0227997
0.0227997
0.0227997
0.0227997
0.0227997
0.0227997
0.0227997
0.0227997
0.0227997
0.0227997
0.0227997
0.0227997
0.0227997
0.0227997
0.0227997
0.0227997
0.0227997
0.0227997
0.0227997
0.0227997
0.0227997
0.0227997
0.0227997
0.0227997
0.0227997
0.0227997
0.0227997
0.0227997
0.0227997
0.0227997
0.0227997
0.0227997
0.0227997
0.0227997
0.0227997
0.0227997
0.0227997
0.0227997
0.0227997
1
1
1
1
1
1
1
1
1
1
1
1
1
1
1
1
1
1
1
1
1
1
1
1
1
1
1
1
1
1
1
1
0.977359
0.934647
0.858527
0.786028
0.752475
0.737542
0.70157
0.66522
0.660256
0.669023
0.66167
0.667091
0.7749
0.789795
0.819208
0.794458
0.684436
0.638869
0.611267
0.552379
0.556318
0.919285
0.913902
0.850888
0.984989
1
1
0.671293
0.461539
0.552081
0.752422
0.967294
1
1
1
1
1
1
1
1
1
1
1
1
1
1
1
1
1
1
1
1
1
1
1
1
1
1
1
1
1
1
1
1
1
1
1
1
1
1
0.991903
0.83
0.714178
0.659853
0.608769
0.609489
0.597464
0.54789
0.546577
0.52997
0.606231
0.524908
0.5131
0.414603
0.853908
1
1
1
1
1
0.227673
0.147062
0.102433
0.0901428
0.0709966
0.0670333
0.0574049
0.0494477
0.046624
0.0436455
0.039571
0.0357014
0.0320253
0.0295846
0.0289665
0.0282553
0.0274456
0.0265347
0.0256676
0.0249595
0.0243047
0.0238469
0.0234302
0.0229898
0.0227997
0.0227997
0.0227997
0.0227997
0.0227997
0.0227997
0.0227997
0.0227997
0.0227997
0.0227997
0.0227997
0.0227997
0.0227997
0.0227997
0.0227997
0.0227997
0.0227997
0.0227997
0.0227997
0.0227997
0.0227997
0.0227997
0.0227997
0.0227997
0.0227997
0.0227997
0.0227997
0.0227997
0.0227997
0.0227997
0.0227997
0.0227997
0.0227997
0.0227997
0.0227997
0.0227997
0.0227997
0.0227997
0.0227997
0.0227997
0.0227997
0.0227997
0.0227997
0.0227997
0.0227997
0.0227997
0.0227997
0.0227997
0.0227997
0.0227997
0.0227997
0.0227997
1
1
1
1
1
1
1
1
1
1
1
1
1
1
1
1
1
1
1
1
1
1
1
1
1
1
1
1
1
1
1
1
1
0.97275
0.891251
0.813548
0.77052
0.764478
0.75737
0.717748
0.696919
0.701284
0.6972
0.722637
0.778575
0.771697
0.814307
0.742494
0.630889
0.58345
0.563712
0.517217
0.511666
0.920433
0.909611
0.861111
1
1
1
0.42335
0.383969
0.505762
0.715732
0.743944
0.673659
0.681022
0.887896
1
1
1
1
1
1
1
1
1
1
1
1
1
1
1
1
1
1
1
1
1
1
1
1
1
1
1
1
1
1
1
1
1
1
1
1
1
1
1
1
0.821367
0.743276
0.694467
0.620946
0.611886
0.613611
0.541793
0.475067
0.551337
0.540751
0.446528
1
1
1
1
1
1
0.197901
0.139453
0.105562
0.0888922
0.0740412
0.0704396
0.0584515
0.0555525
0.0514853
0.0461366
0.0417886
0.0376642
0.0341472
0.030903
0.0296721
0.0289124
0.0280778
0.027168
0.0262176
0.0254015
0.0246974
0.0240754
0.0236093
0.0232152
0.0228068
0.0227997
0.0227997
0.0227997
0.0227997
0.0227997
0.0227997
0.0227997
0.0227997
0.0227997
0.0227997
0.0227997
0.0227997
0.0227997
0.0227997
0.0227997
0.0227997
0.0227997
0.0227997
0.0227997
0.0227997
0.0227997
0.0227997
0.0227997
0.0227997
0.0227997
0.0227997
0.0227997
0.0227997
0.0227997
0.0227997
0.0227997
0.0227997
0.0227997
0.0227997
0.0227997
0.0227997
0.0227997
0.0227997
0.0227997
0.0227997
0.0227997
0.0227997
0.0227997
0.0227997
0.0227997
0.0227997
0.0227997
0.0227997
0.0227997
1
1
1
1
1
1
1
1
1
1
1
1
1
1
1
1
1
1
1
1
1
1
1
1
1
1
1
1
1
1
1
1
1
1
0.949351
0.869558
0.811002
0.787562
0.774612
0.757568
0.758231
0.757358
0.780213
0.773567
0.812105
0.79814
0.826847
0.714073
0.614882
0.566412
0.534162
0.479446
0.463323
1
0.972828
1
1
1
0.736568
0.317867
0.360323
0.622068
0.704006
0.69375
0.655913
0.598623
0.545077
0.499895
0.461583
0.708044
1
1
1
1
1
1
1
1
1
1
1
1
1
1
1
1
1
1
1
1
1
1
1
1
1
1
1
1
1
1
1
1
1
1
1
1
1
1
1
0.939929
0.77506
0.685967
0.637433
0.56546
0.487606
0.540029
0.437001
0.388671
0.243938
0.456517
1
1
1
1
1
0.968893
0.172989
0.132215
0.110073
0.0922033
0.0788058
0.0678438
0.0650315
0.0615499
0.057808
0.0510734
0.0459073
0.0415282
0.0373864
0.0334719
0.0308832
0.0297964
0.0289836
0.0281206
0.0272025
0.026279
0.0254506
0.0247679
0.024123
0.0235631
0.0230886
0.0227997
0.0227997
0.0227997
0.0227997
0.0227997
0.0227997
0.0227997
0.0227997
0.0227997
0.0227997
0.0227997
0.0227997
0.0227997
0.0227997
0.0227997
0.0227997
0.0227997
0.0227997
0.0227997
0.0227997
0.0227997
0.0227997
0.0227997
0.0227997
0.0227997
0.0227997
0.0227997
0.0227997
0.0227997
0.0227997
0.0227997
0.0227997
0.0227997
0.0227997
0.0227997
0.0227997
0.0227997
0.0227997
0.0227997
0.0227997
0.0227997
0.0227997
0.0227997
0.0227997
0.0227997
0.0227997
0.0227997
1
1
1
1
1
1
1
1
1
1
1
1
1
1
1
1
1
1
1
1
1
1
1
1
1
1
1
1
1
1
1
1
1
1
1
1
1
0.959019
0.887
0.839244
0.80687
0.766019
0.761283
0.754253
0.80564
0.807053
0.806954
0.692996
0.605598
0.547973
0.516783
0.45393
0.532562
1
1
1
1
1
0.38144
0.311999
0.432618
0.711778
0.73869
0.691957
0.630926
0.561615
0.500438
0.419594
0.343668
0.209845
0.236304
0.255121
0.508395
0.932911
1
1
1
1
1
1
1
1
1
1
1
1
1
1
1
1
1
1
1
1
1
1
1
1
1
1
1
1
1
1
1
1
1
1
1
1
1
1
0.693201
0.569283
0.601135
0.540413
0.375894
0.290185
0.263413
0.218442
0.186028
0.993883
1
1
1
1
1
0.910868
0.16342
0.129189
0.101756
0.0910954
0.0792545
0.0728434
0.0700883
0.0661445
0.0617925
0.055956
0.0502206
0.0463531
0.0423248
0.0380388
0.035263
0.0336656
0.0319017
0.0300896
0.028632
0.0278294
0.0269998
0.0261925
0.0254524
0.0247779
0.0241559
0.0235781
0.0230454
0.0227997
0.0227997
0.0227997
0.0227997
0.0227997
0.0227997
0.0227997
0.0227997
0.0227997
0.0227997
0.0227997
0.0227997
0.0227997
0.0227997
0.0227997
0.0227997
0.0227997
0.0227997
0.0227997
0.0227997
0.0227997
0.0227997
0.0227997
0.0227997
0.0227997
0.0227997
0.0227997
0.0227997
0.0227997
0.0227997
0.0227997
0.0227997
0.0227997
0.0227997
0.0227997
0.0227997
0.0227997
0.0227997
0.0227997
0.0227997
0.0227997
0.0227997
0.0227997
1
1
1
1
1
1
1
1
1
1
1
1
1
1
1
1
1
1
1
1
1
1
1
1
1
1
1
1
1
1
1
1
1
1
1
1
1
0.857712
0.683387
0.573968
0.467873
0.490368
0.571931
0.645776
0.730394
0.778161
0.768634
0.652801
0.579208
0.539581
0.494382
0.429212
0.789323
1
1
1
1
0.985839
0.311814
0.335566
0.616141
0.755663
0.727935
0.62593
0.553831
0.535886
0.494664
0.375174
0.266285
0.184969
0.162638
0.180784
0.199183
0.232358
0.232173
0.29095
0.633563
1
1
1
1
1
1
1
1
1
1
1
1
1
1
1
1
1
1
1
1
1
1
1
1
1
1
1
1
1
1
1
1
1
1
1
1
1
0.792098
0.518767
0.372759
0.259956
0.235177
0.176186
0.21444
0.176008
0.226288
1
1
1
1
1
1
0.488266
0.164453
0.128173
0.101923
0.0893061
0.0840706
0.0768102
0.0713708
0.0672157
0.0632597
0.0600906
0.0571419
0.0522775
0.04737
0.0445455
0.0411008
0.0389246
0.037273
0.03523
0.0330115
0.0309721
0.0289838
0.0283154
0.0276884
0.027087
0.026496
0.0258925
0.0252532
0.0246106
0.0239734
0.023627
0.0235369
0.0234269
0.0232973
0.0231508
0.0229934
0.0228337
0.0227997
0.0227997
0.0227997
0.0227997
0.0227997
0.0227997
0.0227997
0.0227997
0.0227997
0.0227997
0.0227997
0.0227997
0.0227997
0.0227997
0.0227997
0.0227997
0.0227997
0.0227997
0.0227997
0.0227997
0.0227997
0.0227997
0.0227997
0.0227997
0.0227997
0.0227997
0.0227997
0.0227997
0.0227997
0.0227997
0.0227997
0.0227997
1
1
1
1
1
1
1
1
1
1
1
1
1
1
1
1
1
1
1
1
1
1
1
1
1
1
1
1
1
1
1
1
1
1
1
1
1
1
1
1
1
1
0.955044
0.803674
0.77198
0.798458
0.740677
0.626548
0.570358
0.524997
0.483349
0.532521
1
1
1
1
1
0.747583
0.327118
0.483953
0.708012
0.762323
0.686898
0.584852
0.52156
0.482907
0.428539
0.289295
0.209651
0.16405
0.146474
0.146757
0.146679
0.165819
0.169366
0.196404
0.198029
0.213365
0.230704
0.251308
0.362545
0.644048
0.87093
1
1
1
1
1
1
1
1
1
1
1
1
1
1
1
1
1
1
1
1
1
1
1
1
1
1
1
1
1
1
1
1
1
0.995063
0.568313
0.196328
0.17458
0.194484
0.18673
0.166548
0.196932
0.719607
1
1
1
1
1
1
0.329815
0.167847
0.130958
0.112054
0.0999984
0.0937928
0.0863783
0.0842255
0.0795788
0.0700188
0.0686134
0.0656923
0.0610931
0.055817
0.0509666
0.0492
0.0467938
0.0436948
0.0407802
0.0388614
0.0365805
0.0342114
0.0321097
0.0301868
0.0295327
0.0289628
0.0283737
0.0277691
0.0271567
0.0265413
0.0259298
0.0253354
0.0247734
0.024644
0.024544
0.0244547
0.0243893
0.0243533
0.0243452
0.0243715
0.0244136
0.0244095
0.0243324
0.0241923
0.0239723
0.0236595
0.0232615