# vtk DataFile Version 4.1
vtk output
ASCII
DATASET UNSTRUCTURED_GRID

POINTS	7401	float
0	0	0.0	
0	1	0.0	
0	2	0.0	
0	3	0.0	
0	4	0.0	
0	5	0.0	
0	6	0.0	
0	7	0.0	
0	8	0.0	
0	9	0.0	
0	10	0.0	
0	11	0.0	
0	12	0.0	
0	13	0.0	
0	14	0.0	
0	15	0.0	
0	16	0.0	
0	17	0.0	
0	18	0.0	
0	19	0.0	
0	20	0.0	
0	21	0.0	
0	22	0.0	
0	23	0.0	
0	24	0.0	
0	25	0.0	
0	26	0.0	
0	27	0.0	
0	28	0.0	
0	29	0.0	
0	30	0.0	
0	31	0.0	
0	32	0.0	
0	33	0.0	
0	34	0.0	
0	35	0.0	
0	36	0.0	
0	37	0.0	
0	38	0.0	
0	39	0.0	
0	40	0.0	
1	0	0.0	
1	1	0.0	
1	2	0.0	
1	3	0.0	
1	4	0.0	
1	5	0.0	
1	6	0.0	
1	7	0.0	
1	8	0.0	
1	9	0.0	
1	10	0.0	
1	11	0.0	
1	12	0.0	
1	13	0.0	
1	14	0.0	
1	15	0.0	
1	16	0.0	
1	17	0.0	
1	18	0.0	
1	19	0.0	
1	20	0.0	
1	21	0.0	
1	22	0.0	
1	23	0.0	
1	24	0.0	
1	25	0.0	
1	26	0.0	
1	27	0.0	
1	28	0.0	
1	29	0.0	
1	30	0.0	
1	31	0.0	
1	32	0.0	
1	33	0.0	
1	34	0.0	
1	35	0.0	
1	36	0.0	
1	37	0.0	
1	38	0.0	
1	39	0.0	
1	40	0.0	
2	0	0.0	
2	1	0.0	
2	2	0.0	
2	3	0.0	
2	4	0.0	
2	5	0.0	
2	6	0.0	
2	7	0.0	
2	8	0.0	
2	9	0.0	
2	10	0.0	
2	11	0.0	
2	12	0.0	
2	13	0.0	
2	14	0.0	
2	15	0.0	
2	16	0.0	
2	17	0.0	
2	18	0.0	
2	19	0.0	
2	20	0.0	
2	21	0.0	
2	22	0.0	
2	23	0.0	
2	24	0.0	
2	25	0.0	
2	26	0.0	
2	27	0.0	
2	28	0.0	
2	29	0.0	
2	30	0.0	
2	31	0.0	
2	32	0.0	
2	33	0.0	
2	34	0.0	
2	35	0.0	
2	36	0.0	
2	37	0.0	
2	38	0.0	
2	39	0.0	
2	40	0.0	
3	0	0.0	
3	1	0.0	
3	2	0.0	
3	3	0.0	
3	4	0.0	
3	5	0.0	
3	6	0.0	
3	7	0.0	
3	8	0.0	
3	9	0.0	
3	10	0.0	
3	11	0.0	
3	12	0.0	
3	13	0.0	
3	14	0.0	
3	15	0.0	
3	16	0.0	
3	17	0.0	
3	18	0.0	
3	19	0.0	
3	20	0.0	
3	21	0.0	
3	22	0.0	
3	23	0.0	
3	24	0.0	
3	25	0.0	
3	26	0.0	
3	27	0.0	
3	28	0.0	
3	29	0.0	
3	30	0.0	
3	31	0.0	
3	32	0.0	
3	33	0.0	
3	34	0.0	
3	35	0.0	
3	36	0.0	
3	37	0.0	
3	38	0.0	
3	39	0.0	
3	40	0.0	
4	0	0.0	
4	1	0.0	
4	2	0.0	
4	3	0.0	
4	4	0.0	
4	5	0.0	
4	6	0.0	
4	7	0.0	
4	8	0.0	
4	9	0.0	
4	10	0.0	
4	11	0.0	
4	12	0.0	
4	13	0.0	
4	14	0.0	
4	15	0.0	
4	16	0.0	
4	17	0.0	
4	18	0.0	
4	19	0.0	
4	20	0.0	
4	21	0.0	
4	22	0.0	
4	23	0.0	
4	24	0.0	
4	25	0.0	
4	26	0.0	
4	27	0.0	
4	28	0.0	
4	29	0.0	
4	30	0.0	
4	31	0.0	
4	32	0.0	
4	33	0.0	
4	34	0.0	
4	35	0.0	
4	36	0.0	
4	37	0.0	
4	38	0.0	
4	39	0.0	
4	40	0.0	
5	0	0.0	
5	1	0.0	
5	2	0.0	
5	3	0.0	
5	4	0.0	
5	5	0.0	
5	6	0.0	
5	7	0.0	
5	8	0.0	
5	9	0.0	
5	10	0.0	
5	11	0.0	
5	12	0.0	
5	13	0.0	
5	14	0.0	
5	15	0.0	
5	16	0.0	
5	17	0.0	
5	18	0.0	
5	19	0.0	
5	20	0.0	
5	21	0.0	
5	22	0.0	
5	23	0.0	
5	24	0.0	
5	25	0.0	
5	26	0.0	
5	27	0.0	
5	28	0.0	
5	29	0.0	
5	30	0.0	
5	31	0.0	
5	32	0.0	
5	33	0.0	
5	34	0.0	
5	35	0.0	
5	36	0.0	
5	37	0.0	
5	38	0.0	
5	39	0.0	
5	40	0.0	
6	0	0.0	
6	1	0.0	
6	2	0.0	
6	3	0.0	
6	4	0.0	
6	5	0.0	
6	6	0.0	
6	7	0.0	
6	8	0.0	
6	9	0.0	
6	10	0.0	
6	11	0.0	
6	12	0.0	
6	13	0.0	
6	14	0.0	
6	15	0.0	
6	16	0.0	
6	17	0.0	
6	18	0.0	
6	19	0.0	
6	20	0.0	
6	21	0.0	
6	22	0.0	
6	23	0.0	
6	24	0.0	
6	25	0.0	
6	26	0.0	
6	27	0.0	
6	28	0.0	
6	29	0.0	
6	30	0.0	
6	31	0.0	
6	32	0.0	
6	33	0.0	
6	34	0.0	
6	35	0.0	
6	36	0.0	
6	37	0.0	
6	38	0.0	
6	39	0.0	
6	40	0.0	
7	0	0.0	
7	1	0.0	
7	2	0.0	
7	3	0.0	
7	4	0.0	
7	5	0.0	
7	6	0.0	
7	7	0.0	
7	8	0.0	
7	9	0.0	
7	10	0.0	
7	11	0.0	
7	12	0.0	
7	13	0.0	
7	14	0.0	
7	15	0.0	
7	16	0.0	
7	17	0.0	
7	18	0.0	
7	19	0.0	
7	20	0.0	
7	21	0.0	
7	22	0.0	
7	23	0.0	
7	24	0.0	
7	25	0.0	
7	26	0.0	
7	27	0.0	
7	28	0.0	
7	29	0.0	
7	30	0.0	
7	31	0.0	
7	32	0.0	
7	33	0.0	
7	34	0.0	
7	35	0.0	
7	36	0.0	
7	37	0.0	
7	38	0.0	
7	39	0.0	
7	40	0.0	
8	0	0.0	
8	1	0.0	
8	2	0.0	
8	3	0.0	
8	4	0.0	
8	5	0.0	
8	6	0.0	
8	7	0.0	
8	8	0.0	
8	9	0.0	
8	10	0.0	
8	11	0.0	
8	12	0.0	
8	13	0.0	
8	14	0.0	
8	15	0.0	
8	16	0.0	
8	17	0.0	
8	18	0.0	
8	19	0.0	
8	20	0.0	
8	21	0.0	
8	22	0.0	
8	23	0.0	
8	24	0.0	
8	25	0.0	
8	26	0.0	
8	27	0.0	
8	28	0.0	
8	29	0.0	
8	30	0.0	
8	31	0.0	
8	32	0.0	
8	33	0.0	
8	34	0.0	
8	35	0.0	
8	36	0.0	
8	37	0.0	
8	38	0.0	
8	39	0.0	
8	40	0.0	
9	0	0.0	
9	1	0.0	
9	2	0.0	
9	3	0.0	
9	4	0.0	
9	5	0.0	
9	6	0.0	
9	7	0.0	
9	8	0.0	
9	9	0.0	
9	10	0.0	
9	11	0.0	
9	12	0.0	
9	13	0.0	
9	14	0.0	
9	15	0.0	
9	16	0.0	
9	17	0.0	
9	18	0.0	
9	19	0.0	
9	20	0.0	
9	21	0.0	
9	22	0.0	
9	23	0.0	
9	24	0.0	
9	25	0.0	
9	26	0.0	
9	27	0.0	
9	28	0.0	
9	29	0.0	
9	30	0.0	
9	31	0.0	
9	32	0.0	
9	33	0.0	
9	34	0.0	
9	35	0.0	
9	36	0.0	
9	37	0.0	
9	38	0.0	
9	39	0.0	
9	40	0.0	
10	0	0.0	
10	1	0.0	
10	2	0.0	
10	3	0.0	
10	4	0.0	
10	5	0.0	
10	6	0.0	
10	7	0.0	
10	8	0.0	
10	9	0.0	
10	10	0.0	
10	11	0.0	
10	12	0.0	
10	13	0.0	
10	14	0.0	
10	15	0.0	
10	16	0.0	
10	17	0.0	
10	18	0.0	
10	19	0.0	
10	20	0.0	
10	21	0.0	
10	22	0.0	
10	23	0.0	
10	24	0.0	
10	25	0.0	
10	26	0.0	
10	27	0.0	
10	28	0.0	
10	29	0.0	
10	30	0.0	
10	31	0.0	
10	32	0.0	
10	33	0.0	
10	34	0.0	
10	35	0.0	
10	36	0.0	
10	37	0.0	
10	38	0.0	
10	39	0.0	
10	40	0.0	
11	0	0.0	
11	1	0.0	
11	2	0.0	
11	3	0.0	
11	4	0.0	
11	5	0.0	
11	6	0.0	
11	7	0.0	
11	8	0.0	
11	9	0.0	
11	10	0.0	
11	11	0.0	
11	12	0.0	
11	13	0.0	
11	14	0.0	
11	15	0.0	
11	16	0.0	
11	17	0.0	
11	18	0.0	
11	19	0.0	
11	20	0.0	
11	21	0.0	
11	22	0.0	
11	23	0.0	
11	24	0.0	
11	25	0.0	
11	26	0.0	
11	27	0.0	
11	28	0.0	
11	29	0.0	
11	30	0.0	
11	31	0.0	
11	32	0.0	
11	33	0.0	
11	34	0.0	
11	35	0.0	
11	36	0.0	
11	37	0.0	
11	38	0.0	
11	39	0.0	
11	40	0.0	
12	0	0.0	
12	1	0.0	
12	2	0.0	
12	3	0.0	
12	4	0.0	
12	5	0.0	
12	6	0.0	
12	7	0.0	
12	8	0.0	
12	9	0.0	
12	10	0.0	
12	11	0.0	
12	12	0.0	
12	13	0.0	
12	14	0.0	
12	15	0.0	
12	16	0.0	
12	17	0.0	
12	18	0.0	
12	19	0.0	
12	20	0.0	
12	21	0.0	
12	22	0.0	
12	23	0.0	
12	24	0.0	
12	25	0.0	
12	26	0.0	
12	27	0.0	
12	28	0.0	
12	29	0.0	
12	30	0.0	
12	31	0.0	
12	32	0.0	
12	33	0.0	
12	34	0.0	
12	35	0.0	
12	36	0.0	
12	37	0.0	
12	38	0.0	
12	39	0.0	
12	40	0.0	
13	0	0.0	
13	1	0.0	
13	2	0.0	
13	3	0.0	
13	4	0.0	
13	5	0.0	
13	6	0.0	
13	7	0.0	
13	8	0.0	
13	9	0.0	
13	10	0.0	
13	11	0.0	
13	12	0.0	
13	13	0.0	
13	14	0.0	
13	15	0.0	
13	16	0.0	
13	17	0.0	
13	18	0.0	
13	19	0.0	
13	20	0.0	
13	21	0.0	
13	22	0.0	
13	23	0.0	
13	24	0.0	
13	25	0.0	
13	26	0.0	
13	27	0.0	
13	28	0.0	
13	29	0.0	
13	30	0.0	
13	31	0.0	
13	32	0.0	
13	33	0.0	
13	34	0.0	
13	35	0.0	
13	36	0.0	
13	37	0.0	
13	38	0.0	
13	39	0.0	
13	40	0.0	
14	0	0.0	
14	1	0.0	
14	2	0.0	
14	3	0.0	
14	4	0.0	
14	5	0.0	
14	6	0.0	
14	7	0.0	
14	8	0.0	
14	9	0.0	
14	10	0.0	
14	11	0.0	
14	12	0.0	
14	13	0.0	
14	14	0.0	
14	15	0.0	
14	16	0.0	
14	17	0.0	
14	18	0.0	
14	19	0.0	
14	20	0.0	
14	21	0.0	
14	22	0.0	
14	23	0.0	
14	24	0.0	
14	25	0.0	
14	26	0.0	
14	27	0.0	
14	28	0.0	
14	29	0.0	
14	30	0.0	
14	31	0.0	
14	32	0.0	
14	33	0.0	
14	34	0.0	
14	35	0.0	
14	36	0.0	
14	37	0.0	
14	38	0.0	
14	39	0.0	
14	40	0.0	
15	0	0.0	
15	1	0.0	
15	2	0.0	
15	3	0.0	
15	4	0.0	
15	5	0.0	
15	6	0.0	
15	7	0.0	
15	8	0.0	
15	9	0.0	
15	10	0.0	
15	11	0.0	
15	12	0.0	
15	13	0.0	
15	14	0.0	
15	15	0.0	
15	16	0.0	
15	17	0.0	
15	18	0.0	
15	19	0.0	
15	20	0.0	
15	21	0.0	
15	22	0.0	
15	23	0.0	
15	24	0.0	
15	25	0.0	
15	26	0.0	
15	27	0.0	
15	28	0.0	
15	29	0.0	
15	30	0.0	
15	31	0.0	
15	32	0.0	
15	33	0.0	
15	34	0.0	
15	35	0.0	
15	36	0.0	
15	37	0.0	
15	38	0.0	
15	39	0.0	
15	40	0.0	
16	0	0.0	
16	1	0.0	
16	2	0.0	
16	3	0.0	
16	4	0.0	
16	5	0.0	
16	6	0.0	
16	7	0.0	
16	8	0.0	
16	9	0.0	
16	10	0.0	
16	11	0.0	
16	12	0.0	
16	13	0.0	
16	14	0.0	
16	15	0.0	
16	16	0.0	
16	17	0.0	
16	18	0.0	
16	19	0.0	
16	20	0.0	
16	21	0.0	
16	22	0.0	
16	23	0.0	
16	24	0.0	
16	25	0.0	
16	26	0.0	
16	27	0.0	
16	28	0.0	
16	29	0.0	
16	30	0.0	
16	31	0.0	
16	32	0.0	
16	33	0.0	
16	34	0.0	
16	35	0.0	
16	36	0.0	
16	37	0.0	
16	38	0.0	
16	39	0.0	
16	40	0.0	
17	0	0.0	
17	1	0.0	
17	2	0.0	
17	3	0.0	
17	4	0.0	
17	5	0.0	
17	6	0.0	
17	7	0.0	
17	8	0.0	
17	9	0.0	
17	10	0.0	
17	11	0.0	
17	12	0.0	
17	13	0.0	
17	14	0.0	
17	15	0.0	
17	16	0.0	
17	17	0.0	
17	18	0.0	
17	19	0.0	
17	20	0.0	
17	21	0.0	
17	22	0.0	
17	23	0.0	
17	24	0.0	
17	25	0.0	
17	26	0.0	
17	27	0.0	
17	28	0.0	
17	29	0.0	
17	30	0.0	
17	31	0.0	
17	32	0.0	
17	33	0.0	
17	34	0.0	
17	35	0.0	
17	36	0.0	
17	37	0.0	
17	38	0.0	
17	39	0.0	
17	40	0.0	
18	0	0.0	
18	1	0.0	
18	2	0.0	
18	3	0.0	
18	4	0.0	
18	5	0.0	
18	6	0.0	
18	7	0.0	
18	8	0.0	
18	9	0.0	
18	10	0.0	
18	11	0.0	
18	12	0.0	
18	13	0.0	
18	14	0.0	
18	15	0.0	
18	16	0.0	
18	17	0.0	
18	18	0.0	
18	19	0.0	
18	20	0.0	
18	21	0.0	
18	22	0.0	
18	23	0.0	
18	24	0.0	
18	25	0.0	
18	26	0.0	
18	27	0.0	
18	28	0.0	
18	29	0.0	
18	30	0.0	
18	31	0.0	
18	32	0.0	
18	33	0.0	
18	34	0.0	
18	35	0.0	
18	36	0.0	
18	37	0.0	
18	38	0.0	
18	39	0.0	
18	40	0.0	
19	0	0.0	
19	1	0.0	
19	2	0.0	
19	3	0.0	
19	4	0.0	
19	5	0.0	
19	6	0.0	
19	7	0.0	
19	8	0.0	
19	9	0.0	
19	10	0.0	
19	11	0.0	
19	12	0.0	
19	13	0.0	
19	14	0.0	
19	15	0.0	
19	16	0.0	
19	17	0.0	
19	18	0.0	
19	19	0.0	
19	20	0.0	
19	21	0.0	
19	22	0.0	
19	23	0.0	
19	24	0.0	
19	25	0.0	
19	26	0.0	
19	27	0.0	
19	28	0.0	
19	29	0.0	
19	30	0.0	
19	31	0.0	
19	32	0.0	
19	33	0.0	
19	34	0.0	
19	35	0.0	
19	36	0.0	
19	37	0.0	
19	38	0.0	
19	39	0.0	
19	40	0.0	
20	0	0.0	
20	1	0.0	
20	2	0.0	
20	3	0.0	
20	4	0.0	
20	5	0.0	
20	6	0.0	
20	7	0.0	
20	8	0.0	
20	9	0.0	
20	10	0.0	
20	11	0.0	
20	12	0.0	
20	13	0.0	
20	14	0.0	
20	15	0.0	
20	16	0.0	
20	17	0.0	
20	18	0.0	
20	19	0.0	
20	20	0.0	
20	21	0.0	
20	22	0.0	
20	23	0.0	
20	24	0.0	
20	25	0.0	
20	26	0.0	
20	27	0.0	
20	28	0.0	
20	29	0.0	
20	30	0.0	
20	31	0.0	
20	32	0.0	
20	33	0.0	
20	34	0.0	
20	35	0.0	
20	36	0.0	
20	37	0.0	
20	38	0.0	
20	39	0.0	
20	40	0.0	
21	0	0.0	
21	1	0.0	
21	2	0.0	
21	3	0.0	
21	4	0.0	
21	5	0.0	
21	6	0.0	
21	7	0.0	
21	8	0.0	
21	9	0.0	
21	10	0.0	
21	11	0.0	
21	12	0.0	
21	13	0.0	
21	14	0.0	
21	15	0.0	
21	16	0.0	
21	17	0.0	
21	18	0.0	
21	19	0.0	
21	20	0.0	
21	21	0.0	
21	22	0.0	
21	23	0.0	
21	24	0.0	
21	25	0.0	
21	26	0.0	
21	27	0.0	
21	28	0.0	
21	29	0.0	
21	30	0.0	
21	31	0.0	
21	32	0.0	
21	33	0.0	
21	34	0.0	
21	35	0.0	
21	36	0.0	
21	37	0.0	
21	38	0.0	
21	39	0.0	
21	40	0.0	
22	0	0.0	
22	1	0.0	
22	2	0.0	
22	3	0.0	
22	4	0.0	
22	5	0.0	
22	6	0.0	
22	7	0.0	
22	8	0.0	
22	9	0.0	
22	10	0.0	
22	11	0.0	
22	12	0.0	
22	13	0.0	
22	14	0.0	
22	15	0.0	
22	16	0.0	
22	17	0.0	
22	18	0.0	
22	19	0.0	
22	20	0.0	
22	21	0.0	
22	22	0.0	
22	23	0.0	
22	24	0.0	
22	25	0.0	
22	26	0.0	
22	27	0.0	
22	28	0.0	
22	29	0.0	
22	30	0.0	
22	31	0.0	
22	32	0.0	
22	33	0.0	
22	34	0.0	
22	35	0.0	
22	36	0.0	
22	37	0.0	
22	38	0.0	
22	39	0.0	
22	40	0.0	
23	0	0.0	
23	1	0.0	
23	2	0.0	
23	3	0.0	
23	4	0.0	
23	5	0.0	
23	6	0.0	
23	7	0.0	
23	8	0.0	
23	9	0.0	
23	10	0.0	
23	11	0.0	
23	12	0.0	
23	13	0.0	
23	14	0.0	
23	15	0.0	
23	16	0.0	
[...]
CELL_DATA	2400
SCALARS Rho0 float
LOOKUP_TABLE default
0.244353
0.387081
0.300077
0.35
0.35
0.35
0.35
0.35
0.35
0.35
0.35
0.35
0.35
0.276041
0.198979
0.18975
0.196587
0.190919
0.180954
0.185752
0.207593
0.236759
0.260484
0.28038
0.311742
0.35
0.35
0.35
0.35
0.35
0.35
0.35
0.35
0.35
0.35
0.35
0.35
0.301346
0.334699
0.245626
0.413034
0.269363
0.338321
0.35
0.35
0.35
0.35
0.35
0.35
0.35
0.35
0.35
0.345178
0.186569
0.120218
0.128538
0.131497
0.203152
0.209594
0.0712257
0.11042
0.21644
0.188639
0.156788
0.177058
0.223851
0.298425
0.35
0.35
0.35
0.35
0.35
0.35
0.35
0.35
0.35
0.35
0.338798
0.206286
0.24926
0.426094
0.215854
0.35
0.35
0.35
0.35
0.35
0.35
0.35
0.35
0.35
0.35
0.326124
0.154388
0.0778767
0.172918
0.189972
0.154119
0.106723
0.181309
0.0760131
0.0941472
0.148615
0.130782
0.132313
0.197061
0.280801
0.35
0.35
0.35
0.35
0.35
0.35
0.35
0.35
0.35
0.35
0.35
0.205847
0.284118
0.489337
0.213178
0.35
0.35
0.35
0.35
0.35
0.35
0.35
0.35
0.35
0.35
0.31026
0.124274
0.0925409
0.130118
0.254988
0.178026
0.28856
0.248685
0.177813
0.278985
0.35
0.282387
0.239154
0.199895
0.28913
0.35
0.35
0.35
0.35
0.35
0.35
0.35
0.35
0.35
0.35
0.35
0.214263
0.504815
0.560795
0.322525
0.35
0.35
0.35
0.35
0.35
0.35
0.35
0.35
0.35
0.35
0.308078
0.0938225
0.117839
0.138182
0.058217
0.250711
0.193479
0.24038
0.145222
0.314077
0.405364
0.270407
0.287013
0.219689
0.299456
0.35
0.35
0.35
0.35
0.35
0.35
0.35
0.35
0.35
0.35
0.35
0.326016
0.602656
0.65
0.35
0.35
0.35
0.35
0.35
0.35
0.35
0.35
0.35
0.35
0.35
0.328973
0.0870265
0.0978624
0.121285
0.0899843
0.269932
0.234552
0.234329
0.15506
0.333789
0.242094
0.116596
0.182794
0.228243
0.27006
0.342286
0.35
0.35
0.35
0.35
0.35
0.35
0.35
0.35
0.35
0.35
0.35
0.510107
0.35462
0.35
0.35
0.338641
0.305553
0.294912
0.293779
0.300371
0.309241
0.318594
0.328133
0.329297
0.318291
0.225316
0.233764
0.27293
0.143381
0.307802
0.413897
0.354927
0.383084
0.313273
0.255852
0.093385
0.225418
0.278969
0.299154
0.318786
0.326118
0.328461
0.323427
0.31062
0.301035
0.294818
0.294375
0.306038
0.339086
0.35
0.35
0.377534
0.65
0.35
0.35
0.308005
0.219032
0.175665
0.162338
0.205863
0.149318
0.154864
0.160932
0.169077
0.166107
0.15062
0.219507
0.174013
0.292594
0.251655
0.32746
0.398516
0.00199852
0.320141
0.150378
0.195673
0.338593
0.46019
0.467079
0.464001
0.468468
0.396343
0.386633
0.351733
0.288609
0.228897
0.187987
0.229156
0.28872
0.35
0.35
0.457258
0.35
0.35
0.35
0.280586
0.2986
0.256929
0.237193
0.24558
0.18135
0.401779
0.203956
0.219451
0.0977746
0.20605
0.39227
0.278978
0.268543
0.243411
0.196636
0.265592
0.352843
0.394396
0.205443
0.290596
0.407712
0.498779
0.517613
0.456218
0.38519
0.395131
0.45102
0.307819
0.242201
0.22916
0.304823
0.182041
0.276131
0.35
0.35
0.58372
0.558095
0.433115
0.35
0.59601
0.214547
0.433607
0.284875
0.330092
0.26697
0.155201
0.103918
0.157771
0.288623
0.277334
0.24792
0.329164
0.154744
0.158132
0.103702
0.362374
0.35
0.35
0.143353
0.241308
0.440833
0.441267
0.382804
0.311931
0.224855
0.137694
0.362549
0.369216
0.320196
0.290372
0.460581
0.210365
0.300504
0.35
0.35
0.493427
0.65
0.35
0.350895
0.343001
0.241482
0.340321
0.300475
0.35
0.324162
0.204139
0.175282
0.0908185
0.214642
0.276853
0.444007
0.303301
0.252488
0.142924
0.203376
0.398477
0.381173
0.221941
0.180308
0.338007
0.452165
0.397446
0.277567
0.35
0.0794812
0.204638
0.311144
0.325608
0.35
0.261733
0.225629
0.243765
0.341714
0.35
0.35
0.454796
0.537742
0.368782
0.35
0.35
0.302651
0.333921
0.288823
0.361938
0.223737
0.24558
0.239925
0.186506
0.225613
0.102548
0.0653908
0.149815
0.212721
0.181262
0.359501
0.281052
0.162388
0.117028
0.228861
0.274856
0.356415
0.251234
0.17978
0.108796
0.149422
0.143021
0.137439
0.230743
0.356671
0.176923
0.231157
0.304875
0.35
0.35
0.35
0.35
0.526894
0.35
0.35
0.35
0.330046
0.526078
0.218694
0.226221
0.276902
0.317361
0.310501
0.270531
0.312015
0.216891
0.129015
0.0693568
0.211172
0.144828
0.211475
0.167604
0.0434805
0.0661514
0.234577
0.1873
0.196166
0.161489
0.202148
0.116661
0.133448
0.255672
0.235045
0.136622
0.184634
0.22005
0.352014
0.328822
0.35
0.35
0.35
0.466611
0.520579
0.285341
0.277847
0.304976
0.309405
0.292791
0.303316
0.20851
0.451441
0.26943
0.348585
0.336048
0.187509
0.308743
0.130703
0.145571
0.280701
0.290012
0.270402
0.123695
0.127193
0.116405
0.204088
0.157029
0.197975
0.256484
0.252271
0.227446
0.215837
0.265065
0.39991
0.426076
0.205639
0.256925
0.290906
0.308096
0.302938
0.278032
0.25465
0.471899
0.594049
0.361006
0.440227
0.447148
0.28021
0.559055
0.249758
0.224998
0.408275
0.458684
0.192179
0.17121
0.210606
0.17996
0.241236
0.124191
0.0484373
0.209816
0.180665
0.131293
0.256604
0.179684
0.147899
0.267946
0.346223
0.353113
0.438295
0.312326
0.333367
0.393127
0.426608
0.46606
0.280866
0.263165
0.258729
0.287229
0.444016
0.441904
0.362605
0.35
0.432919
0.35
0.412997
0.389832
0.454295
0.491378
0.370099
0.509888
0.500172
0.299036
0.412106
0.290436
0.269266
0.392357
0.241953
0.154664
0.136648
0.272972
0.252499
0.0297411
0.114585
0.243993
0.183134
0.219384
0.388456
0.4416
0.482982
0.463083
0.436106
0.354296
0.187967
0.497748
0.492259
0.265851
0.491801
0.407744
0.392279
0.395764
0.35
0.35
0.506525
0.35
0.35
0.35
0.326296
0.415742
0.451777
0.382677
0.505387
0.406348
0.358586
0.303664
0.43676
0.183042
0.408252
0.319287
0.259275
0.233237
0.278545
0.190096
0.205382
0.279635
0.0996475
0.258965
0.35278
0.519601
0.4982
0.478472
0.471909
0.52406
0.5895
0.449846
0.360631
0.429222
0.41475
0.362799
0.35
0.35
0.35
0.35
0.649321
0.35
0.35
0.35
0.3263
0.331105
0.396489
0.288943
0.42124
0.269349
0.247249
0.380938
0.57405
0.554604
0.482669
0.474965
0.424015
0.318936
0.150238
0.179526
0.15485
0.315089
0.207553
0.204906
0.268762
0.358766
0.367055
0.318997
0.323132
0.423187
0.475065
0.38174
0.129844
0.294207
0.333513
0.425389
0.35
0.35
0.35
0.510781
0.597961
0.35
0.35
0.35
0.355362
0.547464
0.353767
0.356427
0.368491
0.181093
0.33298
0.384514
0.420899
0.413212
0.443579
0.409514
0.405998
0.39751
0.425233
0.411534
0.289544
0.233638
0.0944157
0.168467
0.237086
0.350011
0.200819
0.143634
0.292975
0.12866
0.142837
0.200904
0.34345
0.278209
0.54375
0.35
0.35
0.35
0.35
0.455871
0.35
0.35
0.35
0.35
0.35
0.267519
0.35
0.35
0.253234
0.297202
0.35
0.487948
0.513519
0.41338
0.340192
0.335939
0.389226
0.447839
0.156534
0.396292
0.327849
0.319405
0.256762
0.198351
0.338258
0.417783
0.260467
0.204975
0.35
0.243082
0.338777
0.396785
0.35
0.493805
0.222693
0.385528
0.35
0.35
0.35
0.35
0.583148
0.391197
0.38575
0.391318
0.356463
0.35
0.35
0.35
0.264785
0.450517
0.390689
0.447433
0.517412
0.475217
0.469179
0.518449
0.504311
0.524786
0.534067
0.295069
0.274484
0.35
0.35
0.431041
0.517221
0.574966
0.471745
0.430956
0.445159
0.408993
0.359168
0.35
0.35
0.436664
0.449204
0.351931
0.413262
0.373427
0.39326
0.371716
0.455759
0.300712
0.465811
0.425494
0.387824
0.350763
0.475499
0.168792
0.208295
0.327269
0.51955
0.4387
0.424665
0.284838
0.498773
0.498552
0.35
0.366426
0.592234
0.353634
0.321125
0.293759
0.271664
0.305377
0.617748
0.554177
0.576488
0.35
0.440679
0.269474
0.274905
0.35
0.409049
0.465844
0.474024
0.440013
0.610839
0.464586
0.291714
0.494342
0.65
0.339999
0.417867
0.458595
0.395774
0.534506
0.226176
0.288485
0.348995
0.450795
0.35
0.391316
0.334715
0.219194
0.264811
0.35
0.440349
0.35
0.162765
0.356943
0.180824
0.0672487
0.35
0.363354
0.440975
0.567211
0.316463
0.428804
0.409399
0.168291
0.17439
0.275852
0.338222
0.522504
0.470565
0.410343
0.457313
0.422809
0.306287
0.65
0.65
0.35
0.617556
0.460482
0.390603
0.488458
0.267714
0.201361
0.319508
0.439677
0.461445
0.417291
0.442852
0.315207
0.300298
0.182045
0.35
0.339036
0.150103
0.213662
0.136406
0.143832
0.34797
0.354076
0.478883
0.504708
0.415079
0.389365
0.35
0.072656
0.0931308
0.16744
0.199234
0.376899
0.429994
0.427934
0.459987
0.483181
0.376028
0.64858
0.418919
0.35
0.49927
0.599387
0.660133
0.443111
0.35
0.341189
0.382595
0.55675
0.417212
0.466701
0.3896
0.412109
0.35
0.38955
0.300941
0.374754
0.421261
0.408666
0.338869
0.29263
0.302092
0.370047
0.323479
0.455903
0.404852
0.35
0.350692
0.35
0.373833
0.143838
0.216628
0.279925
0.279025
0.551059
0.440647
0.553374
0.453584
0.420954
0.525186
0.529918
0.555928
0.427582
0.537643
0.389118
0.519424
0.248401
0.399818
0.441178
0.46993
0.556325
0.560079
0.431743
0.366215
0.401118
0.439366
0.457896
0.474076
0.483402
0.48351
0.474083
0.507863
0.335036
0.22844
0.22116
0.237873
0.431402
0.458681
0.566848
0.4334
0.356434
0.285677
0.371439
0.571379
0.380215
0.494806
0.553318
0.432229
0.538858
0.455093
0.35
0.438969
0.424883
0.480367
0.427806
0.447369
0.538301
0.562426
0.633881
0.484082
0.468695
0.407588
0.39659
0.433258
0.474424
0.513397
0.548039
0.573391
0.588874
0.589439
0.572555
0.546901
0.435409
0.325694
0.259219
0.345495
0.398534
0.525186
0.542829
0.430239
0.306928
0.35
0.35
0.352496
0.409806
0.494244
0.390513
0.35
0.761943
0.356086
0.35
0.460778
0.553889
0.415943
0.469493
0.388123
0.271883
0.356595
0.594537
0.406823
0.474462
0.42548
0.450983
0.488411
0.528894
0.57305
0.616584
0.64938
0.65
0.65
0.65
0.599979
0.475227
0.441799
0.484647
0.449008
0.425511
0.462572
0.555321
0.492318
0.365016
0.279731
0.364984
0.248165
0.315168
0.333882
0.261616
0.316872
0.728574
0.65
0.35799
0.437641
0.366426
0.221474
0.232898
0.369907
0.417843
0.561888
0.516515
0.481256
0.352118
0.299743
0.337698
0.358453
0.41713
0.616814
0.65
0.65
0.65
0.65
0.65
0.617918
0.412036
0.383561
0.353423
0.430186
0.544555
0.516716
0.336494
0.314443
0.265334
0.319821
0.335316
0.419542
0.440298
0.313224
0.290866
0.197431
0.65
0.637235
0.190211
0.385473
0.450955
0.233816
0.28414
0.239681
0.202837
0.390012
0.294008
0.364947
0.434425
0.471934
0.514908
0.519247
0.565674
0.471822
0.687767
0.65
0.65
0.65
0.65
0.542167
0.510882
0.548208
0.521509
0.515631
0.455024
0.505957
0.415562
0.331999
0.358785
0.243648
0.279987
0.299318
0.335506
0.325521
0.323291
0.234732
0.644955
0.570713
0.297207
0.277948
0.348153
0.23145
0.308005
0.28662
0.276995
0.384942
0.274355
0.395064
0.24429
0.366925
0.285189
0.342584
0.630754
0.65
0.394169
0.65
0.640932
0.577827
0.556938
0.479617
0.582943
0.580926
0.400668
0.392691
0.512132
0.411988
0.542394
0.495057
0.531824
0.394825
0.399964
0.311812
0.368483
0.392835
0.384623
0.37903
0.627763
0.582586
0.489178
0.356644
0.342449
0.247528
0.350653
0.193791
0.423101
0.468031
0.492276
0.167016
0.153323
0.264641
0.310537
0.354378
0.35
0.5747
0.478504
0.431054
0.448071
0.448364
0.437491
0.450718
0.595037
0.605971
0.304167
0.316506
0.486495
0.610587
0.393668
0.514434
0.425323
0.570601
0.366584
0.39516
0.409941
0.414204
0.34356
0.515739
0.504251
0.65
0.438486
0.41929
0.526535
0.333608
0.4186
0.197425
0.35
0.329694
0.236797
0.201891
0.349861
0.348519
0.30211
0.306472
0.546193
0.552386
0.433393
0.350164
0.35
0.35
0.35
0.423503
0.561176
0.599552
0.592255
0.360952
0.343397
0.489647
0.4499
0.401804
0.348405
0.35
0.305884
0.386514
0.409231
0.445245
0.492763
0.407518
0.65
0.56632
0.459625
0.419756
0.382289
0.351589
0.44098
0.354861
0.461143
0.423123
0.192813
0.307664
0.348903
0.43832
0.455905
0.571332
0.30977
0.463401
0.365393
0.35
0.35
0.35
0.35
0.35
0.486486
0.544766
0.474531
0.510461
0.324821
0.552098
0.346392
0.338096
0.434986
0.472381
0.451694
0.479493
0.457508
0.442992
0.584406
0.554325
0.469651
0.65
0.575374
0.511211
0.466037
0.495791
0.39284
0.451697
0.476458
0.366434
0.277304
0.375102
0.350697
0.316511
0.489478
0.535845
0.338768
0.371784
0.35
0.35
0.35
0.35
0.35
0.35
0.384312
0.492053
0.506413
0.492884
0.304905
0.508406
0.262502
0.273748
0.389391
0.369927
0.494759
0.527085
0.493583
0.431538
0.467015
0.65
0.562643
0.574771
0.505807
0.442437
0.409316
0.580478
0.527372
0.400274
0.490681
0.353837
0.571789
0.458327
0.484959
0.437041
0.490117
0.550447
0.314245
0.285477
0.35
0.35
0.35
0.35
0.35
0.35
0.35
0.449781
0.57633
0.465408
0.462758
0.593588
0.465514
0.337183
0.29742
0.431837
0.655901
0.446136
0.385908
0.351286
0.65
0.533518
0.553683
0.611063
0.35
0.523522
0.35
0.541666
0.607705
0.42605
0.485987
0.571264
0.631846
0.399914
0.576925
0.47433
0.462811
0.61921
0.391156
0.212501
0.35
0.35
0.35
0.35
0.35
0.35
0.35
0.372312
0.52967
0.501276
0.50239
0.468461
0.524282
0.341949
0.40645
0.630382
0.65
0.49981
0.565228
0.471146
0.65
0.597918
0.482285
0.65
0.530188
0.450868
0.460956
0.517028
0.643374
0.554064
0.465376
0.65
0.65
0.386228
0.631753
0.3409
0.470902
0.511499
0.35
0.35
0.35
0.35
0.35
0.206206
0.35
0.35
0.35
0.351955
0.53953
0.459679
0.505921
0.680836
0.401916
0.480962
0.534019
0.75553
0.615293
0.465808
0.548582
0.624526
0.65
0.570203
0.582554
0.689962
0.411898
0.45981
0.420316
0.410087
0.52539
0.484166
0.411819
0.65
0.65
0.389022
0.581756
0.527946
0.580939
0.497967
0.214816
0.35
0.35
0.35
0.35
0.35
0.35
0.35
0.35
0.386391
0.434264
0.480968
0.667062
0.661573
0.372842
0.65
0.65
0.792703
0.505916
0.588076
0.311518
0.421834
0.35
0.556579
0.65
0.65
0.464743
0.594732
0.688095
0.506195
0.353
0.458923
0.592209
0.65
0.65
0.550272
0.697384
0.57495
0.446363
0.473801
0.35
0.335948
0.35
0.35
0.35
0.35
0.35
0.35
0.386663
0.35654
0.437134
0.486739
0.813247
0.595034
0.493182
0.636093
0.65
0.606539
0.520974
0.543832
0.529409
0.576993
0.65
0.600743
0.65
0.65
0.595105
0.437067
0.65
0.510108
0.430859
0.479988
0.571378
0.587356
0.540639
0.65
0.718284
0.718688
0.412584
0.572579
0.352168
0.35
0.35
0.35
0.35
0.35
0.371148
0.403658
0.387828
0.498164
0.498085
0.665936
0.749885
0.718022
0.632299
0.699261
0.65
0.536837
0.55192
0.607656
0.422998
0.65
0.65
0.491721
0.648156
0.65
0.586318
0.519089
0.65
0.384266
0.658073
0.65
0.524117
0.65
0.477942
0.655889
0.751436
0.733586
0.694375
0.604535
0.500571
0.35
0.35
0.35
0.361018
0.410577
0.460607
0.487489
0.526363
0.576972
0.64224
0.696596
0.758795
0.786635
0.786661
0.846089
0.656656
0.65
0.65
0.467033
0.391352
0.65
0.423634
0.65
0.559782
0.676142
0.65
0.386157
0.468457
0.597055
0.526362
0.65
0.65
0.731843
0.51146
0.766725
0.782434
0.72898
0.627846
0.559826
0.65
0.481768
0.421567
0.426211
0.465129
0.517655
0.576774
0.626579
0.621484
0.585772
0.65326
0.80991
0.939516
0.849751
0.667542
0.617008
0.65
0.498114
0.679187
0.65
0.590548
0.459186
0.503954
0.65
0.51827
0.749245
0.497482
0.447709
0.545926
0.628156
0.695903
0.651031
0.716827
0.718561
0.770892
0.787371
0.892272
0.745697
0.65
0.815946
0.628666
0.49267
0.50033
0.528403
0.567925
0.619802
0.65
0.65
0.664205
0.704694
0.65
0.95
0.825915
0.59627
0.485168
0.672409
0.65
0.678368
0.830638
0.65
0.65
0.361214
0.522878
0.623372
0.636053
0.577009
0.590845
0.592757
0.647483
0.65
0.65
0.615805
0.867931
0.814581
0.798349
0.824054
0.841613
0.65
0.763389
0.65
0.736128
0.65
0.594215
0.622916
0.646479
0.65
0.65
0.65
0.661482
0.885303
0.914736
0.84167
0.65
0.928359
0.825956
1
0.653541
0.95
0.690274
0.690265
0.696261
0.738127
0.504354
0.709028
0.541739
0.231111
0.759249
0.65
0.549017
0.65
0.664224
0.880545
0.948041
0.864473
0.746834
0.956789
0.842667
0.690098
0.675467
0.778631
0.924835
0.722739
0.629739
0.65
0.65
0.65
0.65
0.65
0.806413
0.65
0.786525
1
0.95
0.914608
1
0.692941
0.749235
0.95
0.65
0.850394
0.748977
0.65
0.65
0.761013
0.457916
0.311575
0.50557
0.741339
0.637057
0.65
0.828523
0.777927
0.797876
0.76627
0.752725
0.695452
0.829244
0.939074
0.736394
0.95
0.65
0.87003
0.65
0.65
0.65
0.65
0.65
0.65
0.803101
0.65
0.95
0.95
0.937078
0.876474
0.844026
0.747139
0.678536
0.95
0.95
0.791205
0.676142
0.687228
0.677153
0.807049
0.50967
0.329536
0.491199
0.661329
0.71288
0.785943
0.656227
0.870093
0.942537
0.975803
0.734235
0.781071
0.82229
1
0.635729
0.95
0.754475
0.897889
0.632699
0.65
0.65
0.65
0.65
0.65
0.924317
0.65
1
1
0.869534
0.604187
0.780904
0.911953
0.974418
0.95
0.850784
0.769781
0.809072
0.858507
0.72487
0.571149
0.473271
0.39984
0.434932
0.685386
0.673528
0.702298
0.828154
0.65
0.95
0.967554
0.984571
1
0.774839
0.994933
0.876769
0.895139
1
0.95
0.707123
0.65
0.65
0.65
0.65
0.720156
0.843457
1
1
0.879145
0.969515
0.756136
0.806797
1
0.970806
0.807367
0.724542
0.95
0.798763
0.825905
0.647165
0.37131
0.423783
0.442392
0.442322
0.598502
0.636001
0.715819
0.94182
0.727403
0.805178
0.950066
0.961371
0.96952
0.994859
1
1
1
1
0.907851
0.856875
0.648606
0.615347
0.65
0.681558
0.775668
1
1
1
0.853941
0.863019
0.889542
0.859339
0.823167
0.95
0.758502
0.898841
0.95
0.804794
0.67752
0.499675
0.35
0.641082
0.451859
0.624042
0.560409
0.737871
0.651872
0.670832
0.868042
0.845015
0.95
0.740625
0.895531
0.954683
1
1
0.95
1
0.968559
0.876745
0.645627
0.493668
0.531689
0.611283
0.965261
1
1
0.844513
1
1
0.955439
0.95
0.899441
0.774024
0.95
0.95
0.65
0.918365
0.647634
0.379308
0.35
0.437635
0.35
0.65
0.579152
0.679897
0.665147
0.65
0.868095
0.95
0.95
0.95
0.95
0.95
1
1
1
0.95
1
0.930505
0.7
0.65
0.651479
0.65
1
1
0.95
0.973126
0.946807
1
0.95
0.95
0.719342
0.830893
0.707323
0.885591
0.890501
0.670508
0.598996
0.438107
0.35
0.35
0.35
0.571433
0.737802
0.558126
0.744959
0.834132
0.75392
0.95
0.938855
0.95
0.95
0.977964
1
1
1
0.95
0.95
0.95
0.926371
0.825053
0.573302
1
1
0.95
0.95
0.95
1
0.854404
0.976124
0.74963
0.902783
0.95
0.95
0.95
0.631819
0.65
0.417862
0.404418
0.397831
0.35
0.35
0.454219
0.620609
0.646591
0.645343
0.848687
0.95
0.745378
0.95
0.807786
0.95
1
0.983546
0.95
1
0.95
1
1
0.881372
0.724972
0.873387
0.95
1
1
0.95
0.95
0.95
0.921871
0.787646
0.95
0.95
0.95
0.929105
0.657922
0.65
0.534618
0.429864
0.45269
0.359521
0.35
0.35
0.598288
0.825826
0.65
0.674163
0.95
0.824456
0.95
0.95
0.710254
0.962001
1
0.95
0.95
0.989695
0.95
0.95
0.95
0.997395
0.829831
0.95
1
1
1
0.95
0.95
0.95
0.95
0.955342
0.960728
0.95
0.65
0.65
0.65
0.65
0.567541
0.526218
0.479202
0.317856
0.390426
0.238016
0.239335
0.184873
0.731515
0.890942
0.669312
0.95
0.95
0.95
0.95
1
0.908283
0.95
0.95
1
1
1
1
1
0.95
1
1
1
1
1
0.95
0.95
0.95
1
1
0.95
0.95
0.857888
0.76988
0.65
0.65
0.65
0.441438
0.361748
0.563311
0.35
0.300424
0.536663
0.65
0.703589
0.95
0.95
0.95
0.98534
1
0.893838
0.95
0.95
1
0.95
0.95
0.95
1
1
1
1
1
1
0.95
0.95
0.95
0.95
1
1
0.89494
0.915097
0.70284
0.894456
0.685953
0.65
0.895098
0.65
0.65
0.559308
0.590568
0.35
0.368318
0.50933
0.481102
0.431294
0.684718
0.888762
1
0.970949
0.95
0.95
1
0.95
0.95
0.95
0.95
0.95
0.95
1
1
1
1
1
1
1
0.95
0.981834
1
1
0.95
0.974132
0.95
1
0.987494
0.983766
0.657818
0.776187
0.65
0.4279
0.556301
0.547222
0.274575
0.374477
0.423852
0.601691
0.694989
0.840152
0.973693
1
1
0.95
1
0.95
0.95
0.95
0.95
1
1
1
1
1
1
1
0.992133
1
0.95
1
1
1
0.95
1
1
1
0.95
0.925951
0.866051
0.622589
0.444635
0.313876
0.531285
0.464119
0.467133
0.627567
0.65
0.622522
0.658407
0.703033
0.855644
1
1
1
1
0.95
1
1
1
1
1
1
1
1
1
1
1
0.95
1
1
0.95
0.95
0.95
1
1
0.95
0.829368
0.679065
0.65
0.65
0.626516
0.736832
0.458497


POINT_DATA	7401
VECTORS u0 float
0	0	0
0	0	0
0	0	0
0	0	0
0	0	0
0	0	0
0	0	0
0	0	0
0	0	0
0	0	0
0	0	0
0	0	0
0	0	0
0	0	0
0	0	0
0	0	0
0	0	0
0	0	0
0	0	0
0	0	0
0	0	0
0	0	0
0	0	0
0	0	0
0	0	0
0	0	0
0	0	0
0	0	0
0	0	0
0	0	0
0	0	0
0	0	0
0	0	0
0	0	0
0	0	0
0	0	0
0	0	0
0	0	0
0	0	0
0	0	0
0	0	0
-0.00114599	-0.000374235	0
-0.000638723	-0.000310002	0
-0.000428082	-0.000210114	0
-0.000471148	-0.000170069	0
-0.000412738	-0.000119185	0
-0.00037434	-7.1479e-05	0
-0.000355937	-2.61272e-05	0
-0.000331021	-7.65011e-07	0
-0.00030819	3.30905e-05	0
-0.000287513	6.22796e-05	0
-0.000265998	8.41743e-05	0
-0.000256659	0.000110229	0
-0.00025145	0.000136239	0
-0.000263496	0.000154605	0
-0.00016791	0.000118764	0
-8.47475e-05	2.62305e-05	0
-3.06921e-05	-4.74958e-05	0
-1.35728e-05	-0.000116006	0
3.15816e-05	-0.000136879	0
8.27462e-05	-0.000109348	0
4.80126e-05	-1.20849e-05	0
8.07054e-05	4.37583e-05	0
8.89886e-05	6.40562e-05	0
8.60147e-05	6.93644e-05	0
0.000104141	8.31871e-05	0
0.000151797	0.000106432	0
0.000218721	0.0001243	0
0.000282364	0.000138562	0
0.000293174	0.000124529	0
0.000307562	0.000105448	0
0.000309755	9.56383e-05	0
0.000314592	7.28375e-05	0
0.00031921	5.21768e-05	0
0.000340143	3.91258e-05	0
0.000373042	1.51206e-05	0
0.000421962	-1.63577e-05	0
0.000482369	-5.14881e-05	0
0.000598145	-0.000102685	0
0.000602796	-0.000158928	0
0.00069016	-0.000290622	0
0.00128346	-0.000487951	0
-0.00119968	-0.000767742	0
-0.000894001	-0.000695854	0
-0.000738352	-0.000461342	0
-0.000694958	-0.000345905	0
-0.000616837	-0.000247797	0
-0.000575987	-0.000163272	0