# vtk DataFile Version 4.1
vtk output
ASCII
DATASET UNSTRUCTURED_GRID

POINTS	7401	float
0	0	0.0	
0	2.5	0.0	
0	5	0.0	
0	7.5	0.0	
0	10	0.0	
0	12.5	0.0	
0	15	0.0	
0	17.5	0.0	
0	20	0.0	
0	22.5	0.0	
0	25	0.0	
0	27.5	0.0	
0	30	0.0	
0	32.5	0.0	
0	35	0.0	
0	37.5	0.0	
0	40	0.0	
0	42.5	0.0	
0	45	0.0	
0	47.5	0.0	
0	50	0.0	
0	52.5	0.0	
0	55	0.0	
0	57.5	0.0	
0	60	0.0	
0	62.5	0.0	
0	65	0.0	
0	67.5	0.0	
0	70	0.0	
0	72.5	0.0	
0	75	0.0	
0	77.5	0.0	
0	80	0.0	
0	82.5	0.0	
0	85	0.0	
0	87.5	0.0	
0	90	0.0	
0	92.5	0.0	
0	95	0.0	
0	97.5	0.0	
0	100	0.0	
2.5	0	0.0	
2.5	2.5	0.0	
2.5	5	0.0	
2.5	7.5	0.0	
2.5	10	0.0	
2.5	12.5	0.0	
2.5	15	0.0	
2.5	17.5	0.0	
2.5	20	0.0	
2.5	22.5	0.0	
2.5	25	0.0	
2.5	27.5	0.0	
2.5	30	0.0	
2.5	32.5	0.0	
2.5	35	0.0	
2.5	37.5	0.0	
2.5	40	0.0	
2.5	42.5	0.0	
2.5	45	0.0	
2.5	47.5	0.0	
2.5	50	0.0	
2.5	52.5	0.0	
2.5	55	0.0	
2.5	57.5	0.0	
2.5	60	0.0	
2.5	62.5	0.0	
2.5	65	0.0	
2.5	67.5	0.0	
2.5	70	0.0	
2.5	72.5	0.0	
2.5	75	0.0	
2.5	77.5	0.0	
2.5	80	0.0	
2.5	82.5	0.0	
2.5	85	0.0	
2.5	87.5	0.0	
2.5	90	0.0	
2.5	92.5	0.0	
2.5	95	0.0	
2.5	97.5	0.0	
2.5	100	0.0	
5	0	0.0	
5	2.5	0.0	
5	5	0.0	
5	7.5	0.0	
5	10	0.0	
5	12.5	0.0	
5	15	0.0	
5	17.5	0.0	
5	20	0.0	
5	22.5	0.0	
5	25	0.0	
5	27.5	0.0	
5	30	0.0	
5	32.5	0.0	
5	35	0.0	
5	37.5	0.0	
5	40	0.0	
5	42.5	0.0	
5	45	0.0	
5	47.5	0.0	
5	50	0.0	
5	52.5	0.0	
5	55	0.0	
5	57.5	0.0	
5	60	0.0	
5	62.5	0.0	
5	65	0.0	
5	67.5	0.0	
5	70	0.0	
5	72.5	0.0	
5	75	0.0	
5	77.5	0.0	
5	80	0.0	
5	82.5	0.0	
5	85	0.0	
5	87.5	0.0	
5	90	0.0	
5	92.5	0.0	
5	95	0.0	
5	97.5	0.0	
5	100	0.0	
7.5	0	0.0	
7.5	2.5	0.0	
7.5	5	0.0	
7.5	7.5	0.0	
7.5	10	0.0	
7.5	12.5	0.0	
7.5	15	0.0	
7.5	17.5	0.0	
7.5	20	0.0	
7.5	22.5	0.0	
7.5	25	0.0	
7.5	27.5	0.0	
7.5	30	0.0	
7.5	32.5	0.0	
7.5	35	0.0	
7.5	37.5	0.0	
7.5	40	0.0	
7.5	42.5	0.0	
7.5	45	0.0	
7.5	47.5	0.0	
7.5	50	0.0	
7.5	52.5	0.0	
7.5	55	0.0	
7.5	57.5	0.0	
7.5	60	0.0	
7.5	62.5	0.0	
7.5	65	0.0	
7.5	67.5	0.0	
7.5	70	0.0	
7.5	72.5	0.0	
7.5	75	0.0	
7.5	77.5	0.0	
7.5	80	0.0	
7.5	82.5	0.0	
7.5	85	0.0	
7.5	87.5	0.0	
7.5	90	0.0	
7.5	92.5	0.0	
7.5	95	0.0	
7.5	97.5	0.0	
7.5	100	0.0	
10	0	0.0	
10	2.5	0.0	
10	5	0.0	
10	7.5	0.0	
10	10	0.0	
10	12.5	0.0	
10	15	0.0	
10	17.5	0.0	
10	20	0.0	
10	22.5	0.0	
10	25	0.0	
10	27.5	0.0	
10	30	0.0	
10	32.5	0.0	
10	35	0.0	
10	37.5	0.0	
10	40	0.0	
10	42.5	0.0	
10	45	0.0	
10	47.5	0.0	
10	50	0.0	
10	52.5	0.0	
10	55	0.0	
10	57.5	0.0	
10	60	0.0	
10	62.5	0.0	
10	65	0.0	
10	67.5	0.0	
10	70	0.0	
10	72.5	0.0	
10	75	0.0	
10	77.5	0.0	
10	80	0.0	
10	82.5	0.0	
10	85	0.0	
10	87.5	0.0	
10	90	0.0	
10	92.5	0.0	
10	95	0.0	
10	97.5	0.0	
10	100	0.0	
12.5	0	0.0	
12.5	2.5	0.0	
12.5	5	0.0	
12.5	7.5	0.0	
12.5	10	0.0	
12.5	12.5	0.0	
12.5	15	0.0	
12.5	17.5	0.0	
12.5	20	0.0	
12.5	22.5	0.0	
12.5	25	0.0	
12.5	27.5	0.0	
12.5	30	0.0	
12.5	32.5	0.0	
12.5	35	0.0	
12.5	37.5	0.0	
12.5	40	0.0	
12.5	42.5	0.0	
12.5	45	0.0	
12.5	47.5	0.0	
12.5	50	0.0	
12.5	52.5	0.0	
12.5	55	0.0	
12.5	57.5	0.0	
12.5	60	0.0	
12.5	62.5	0.0	
12.5	65	0.0	
12.5	67.5	0.0	
12.5	70	0.0	
12.5	72.5	0.0	
12.5	75	0.0	
12.5	77.5	0.0	
12.5	80	0.0	
12.5	82.5	0.0	
12.5	85	0.0	
12.5	87.5	0.0	
12.5	90	0.0	
12.5	92.5	0.0	
12.5	95	0.0	
12.5	97.5	0.0	
12.5	100	0.0	
15	0	0.0	
15	2.5	0.0	
15	5	0.0	
15	7.5	0.0	
15	10	0.0	
15	12.5	0.0	
15	15	0.0	
15	17.5	0.0	
15	20	0.0	
15	22.5	0.0	
15	25	0.0	
15	27.5	0.0	
15	30	0.0	
15	32.5	0.0	
15	35	0.0	
15	37.5	0.0	
15	40	0.0	
15	42.5	0.0	
15	45	0.0	
15	47.5	0.0	
15	50	0.0	
15	52.5	0.0	
15	55	0.0	
15	57.5	0.0	
15	60	0.0	
15	62.5	0.0	
15	65	0.0	
15	67.5	0.0	
15	70	0.0	
15	72.5	0.0	
15	75	0.0	
15	77.5	0.0	
15	80	0.0	
15	82.5	0.0	
15	85	0.0	
15	87.5	0.0	
15	90	0.0	
15	92.5	0.0	
15	95	0.0	
15	97.5	0.0	
15	100	0.0	
17.5	0	0.0	
17.5	2.5	0.0	
17.5	5	0.0	
17.5	7.5	0.0	
17.5	10	0.0	
17.5	12.5	0.0	
17.5	15	0.0	
17.5	17.5	0.0	
17.5	20	0.0	
17.5	22.5	0.0	
17.5	25	0.0	
17.5	27.5	0.0	
17.5	30	0.0	
17.5	32.5	0.0	
17.5	35	0.0	
17.5	37.5	0.0	
17.5	40	0.0	
17.5	42.5	0.0	
17.5	45	0.0	
17.5	47.5	0.0	
17.5	50	0.0	
17.5	52.5	0.0	
17.5	55	0.0	
17.5	57.5	0.0	
17.5	60	0.0	
17.5	62.5	0.0	
17.5	65	0.0	
17.5	67.5	0.0	
17.5	70	0.0	
17.5	72.5	0.0	
17.5	75	0.0	
17.5	77.5	0.0	
17.5	80	0.0	
17.5	82.5	0.0	
17.5	85	0.0	
17.5	87.5	0.0	
17.5	90	0.0	
17.5	92.5	0.0	
17.5	95	0.0	
17.5	97.5	0.0	
17.5	100	0.0	
20	0	0.0	
20	2.5	0.0	
20	5	0.0	
20	7.5	0.0	
20	10	0.0	
20	12.5	0.0	
20	15	0.0	
20	17.5	0.0	
20	20	0.0	
20	22.5	0.0	
20	25	0.0	
20	27.5	0.0	
20	30	0.0	
20	32.5	0.0	
20	35	0.0	
20	37.5	0.0	
20	40	0.0	
20	42.5	0.0	
20	45	0.0	
20	47.5	0.0	
20	50	0.0	
20	52.5	0.0	
20	55	0.0	
20	57.5	0.0	
20	60	0.0	
20	62.5	0.0	
20	65	0.0	
20	67.5	0.0	
20	70	0.0	
20	72.5	0.0	
20	75	0.0	
20	77.5	0.0	
20	80	0.0	
20	82.5	0.0	
20	85	0.0	
20	87.5	0.0	
20	90	0.0	
20	92.5	0.0	
20	95	0.0	
20	97.5	0.0	
20	100	0.0	
22.5	0	0.0	
22.5	2.5	0.0	
22.5	5	0.0	
22.5	7.5	0.0	
22.5	10	0.0	
22.5	12.5	0.0	
22.5	15	0.0	
22.5	17.5	0.0	
22.5	20	0.0	
22.5	22.5	0.0	
22.5	25	0.0	
22.5	27.5	0.0	
22.5	30	0.0	
22.5	32.5	0.0	
22.5	35	0.0	
22.5	37.5	0.0	
22.5	40	0.0	
22.5	42.5	0.0	
22.5	45	0.0	
22.5	47.5	0.0	
22.5	50	0.0	
22.5	52.5	0.0	
22.5	55	0.0	
22.5	57.5	0.0	
22.5	60	0.0	
22.5	62.5	0.0	
22.5	65	0.0	
22.5	67.5	0.0	
22.5	70	0.0	
22.5	72.5	0.0	
22.5	75	0.0	
22.5	77.5	0.0	
22.5	80	0.0	
22.5	82.5	0.0	
22.5	85	0.0	
22.5	87.5	0.0	
22.5	90	0.0	
22.5	92.5	0.0	
22.5	95	0.0	
22.5	97.5	0.0	
22.5	100	0.0	
25	0	0.0	
25	2.5	0.0	
25	5	0.0	
25	7.5	0.0	
25	10	0.0	
25	12.5	0.0	
25	15	0.0	
25	17.5	0.0	
25	20	0.0	
25	22.5	0.0	
25	25	0.0	
25	27.5	0.0	
25	30	0.0	
25	32.5	0.0	
25	35	0.0	
25	37.5	0.0	
25	40	0.0	
25	42.5	0.0	
25	45	0.0	
25	47.5	0.0	
25	50	0.0	
25	52.5	0.0	
25	55	0.0	
25	57.5	0.0	
25	60	0.0	
25	62.5	0.0	
25	65	0.0	
25	67.5	0.0	
25	70	0.0	
25	72.5	0.0	
25	75	0.0	
25	77.5	0.0	
25	80	0.0	
25	82.5	0.0	
25	85	0.0	
25	87.5	0.0	
25	90	0.0	
25	92.5	0.0	
25	95	0.0	
25	97.5	0.0	
25	100	0.0	
27.5	0	0.0	
27.5	2.5	0.0	
27.5	5	0.0	
27.5	7.5	0.0	
27.5	10	0.0	
27.5	12.5	0.0	
27.5	15	0.0	
27.5	17.5	0.0	
27.5	20	0.0	
27.5	22.5	0.0	
27.5	25	0.0	
27.5	27.5	0.0	
27.5	30	0.0	
27.5	32.5	0.0	
27.5	35	0.0	
27.5	37.5	0.0	
27.5	40	0.0	
27.5	42.5	0.0	
27.5	45	0.0	
27.5	47.5	0.0	
27.5	50	0.0	
27.5	52.5	0.0	
27.5	55	0.0	
27.5	57.5	0.0	
27.5	60	0.0	
27.5	62.5	0.0	
27.5	65	0.0	
27.5	67.5	0.0	
27.5	70	0.0	
27.5	72.5	0.0	
27.5	75	0.0	
27.5	77.5	0.0	
27.5	80	0.0	
27.5	82.5	0.0	
27.5	85	0.0	
27.5	87.5	0.0	
27.5	90	0.0	
27.5	92.5	0.0	
27.5	95	0.0	
27.5	97.5	0.0	
27.5	100	0.0	
30	0	0.0	
30	2.5	0.0	
30	5	0.0	
30	7.5	0.0	
30	10	0.0	
30	12.5	0.0	
30	15	0.0	
30	17.5	0.0	
30	20	0.0	
30	22.5	0.0	
30	25	0.0	
30	27.5	0.0	
30	30	0.0	
30	32.5	0.0	
30	35	0.0	
30	37.5	0.0	
30	40	0.0	
30	42.5	0.0	
30	45	0.0	
30	47.5	0.0	
30	50	0.0	
30	52.5	0.0	
30	55	0.0	
30	57.5	0.0	
30	60	0.0	
30	62.5	0.0	
30	65	0.0	
30	67.5	0.0	
30	70	0.0	
30	72.5	0.0	
30	75	0.0	
30	77.5	0.0	
30	80	0.0	
30	82.5	0.0	
30	85	0.0	
30	87.5	0.0	
30	90	0.0	
30	92.5	0.0	
30	95	0.0	
30	97.5	0.0	
30	100	0.0	
32.5	0	0.0	
32.5	2.5	0.0	
32.5	5	0.0	
32.5	7.5	0.0	
32.5	10	0.0	
32.5	12.5	0.0	
32.5	15	0.0	
32.5	17.5	0.0	
32.5	20	0.0	
32.5	22.5	0.0	
32.5	25	0.0	
32.5	27.5	0.0	
32.5	30	0.0	
32.5	32.5	0.0	
32.5	35	0.0	
32.5	37.5	0.0	
32.5	40	0.0	
32.5	42.5	0.0	
32.5	45	0.0	
32.5	47.5	0.0	
32.5	50	0.0	
32.5	52.5	0.0	
32.5	55	0.0	
32.5	57.5	0.0	
32.5	60	0.0	
32.5	62.5	0.0	
32.5	65	0.0	
32.5	67.5	0.0	
32.5	70	0.0	
32.5	72.5	0.0	
32.5	75	0.0	
32.5	77.5	0.0	
32.5	80	0.0	
32.5	82.5	0.0	
32.5	85	0.0	
32.5	87.5	0.0	
32.5	90	0.0	
32.5	92.5	0.0	
32.5	95	0.0	
32.5	97.5	0.0	
32.5	100	0.0	
35	0	0.0	
35	2.5	0.0	
35	5	0.0	
35	7.5	0.0	
35	10	0.0	
35	12.5	0.0	
35	15	0.0	
35	17.5	0.0	
35	20	0.0	
35	22.5	0.0	
35	25	0.0	
35	27.5	0.0	
35	30	0.0	
35	32.5	0.0	
35	35	0.0	
35	37.5	0.0	
35	40	0.0	
35	42.5	0.0	
35	45	0.0	
35	47.5	0.0	
35	50	0.0	
35	52.5	0.0	
35	55	0.0	
35	57.5	0.0	
35	60	0.0	
35	62.5	0.0	
35	65	0.0	
35	67.5	0.0	
35	70	0.0	
35	72.5	0.0	
35	75	0.0	
35	77.5	0.0	
35	80	0.0	
35	82.5	0.0	
35	85	0.0	
35	87.5	0.0	
35	90	0.0	
35	92.5	0.0	
35	95	0.0	
35	97.5	0.0	
35	100	0.0	
37.5	0	0.0	
37.5	2.5	0.0	
37.5	5	0.0	
37.5	7.5	0.0	
37.5	10	0.0	
37.5	12.5	0.0	
37.5	15	0.0	
37.5	17.5	0.0	
37.5	20	0.0	
37.5	22.5	0.0	
37.5	25	0.0	
37.5	27.5	0.0	
37.5	30	0.0	
37.5	32.5	0.0	
37.5	35	0.0	
37.5	37.5	0.0	
37.5	40	0.0	
37.5	42.5	0.0	
37.5	45	0.0	
37.5	47.5	0.0	
37.5	50	0.0	
37.5	52.5	0.0	
37.5	55	0.0	
37.5	57.5	0.0	
37.5	60	0.0	
37.5	62.5	0.0	
37.5	65	0.0	
37.5	67.5	0.0	
37.5	70	0.0	
37.5	72.5	0.0	
37.5	75	0.0	
37.5	77.5	0.0	
37.5	80	0.0	
37.5	82.5	0.0	
37.5	85	0.0	
37.5	87.5	0.0	
37.5	90	0.0	
37.5	92.5	0.0	
37.5	95	0.0	
37.5	97.5	0.0	
37.5	100	0.0	
40	0	0.0	
40	2.5	0.0	
40	5	0.0	
40	7.5	0.0	
40	10	0.0	
40	12.5	0.0	
40	15	0.0	
40	17.5	0.0	
40	20	0.0	
40	22.5	0.0	
40	25	0.0	
40	27.5	0.0	
40	30	0.0	
40	32.5	0.0	
40	35	0.0	
40	37.5	0.0	
40	40	0.0	
40	42.5	0.0	
40	45	0.0	
40	47.5	0.0	
40	50	0.0	
40	52.5	0.0	
40	55	0.0	
40	57.5	0.0	
40	60	0.0	
40	62.5	0.0	
40	65	0.0	
40	67.5	0.0	
40	70	0.0	
40	72.5	0.0	
40	75	0.0	
40	77.5	0.0	
40	80	0.0	
40	82.5	0.0	
40	85	0.0	
40	87.5	0.0	
40	90	0.0	
40	92.5	0.0	
40	95	0.0	
40	97.5	0.0	
40	100	0.0	
42.5	0	0.0	
42.5	2.5	0.0	
42.5	5	0.0	
42.5	7.5	0.0	
42.5	10	0.0	
42.5	12.5	0.0	
42.5	15	0.0	
42.5	17.5	0.0	
42.5	20	0.0	
42.5	22.5	0.0	
42.5	25	0.0	
42.5	27.5	0.0	
42.5	30	0.0	
42.5	32.5	0.0	
42.5	35	0.0	
42.5	37.5	0.0	
42.5	40	0.0	
42.5	42.5	0.0	
42.5	45	0.0	
42.5	47.5	0.0	
42.5	50	0.0	
42.5	52.5	0.0	
42.5	55	0.0	
42.5	57.5	0.0	
42.5	60	0.0	
42.5	62.5	0.0	
42.5	65	0.0	
42.5	67.5	0.0	
42.5	70	0.0	
42.5	72.5	0.0	
42.5	75	0.0	
42.5	77.5	0.0	
42.5	80	0.0	
42.5	82.5	0.0	
42.5	85	0.0	
42.5	87.5	0.0	
42.5	90	0.0	
42.5	92.5	0.0	
42.5	95	0.0	
42.5	97.5	0.0	
42.5	100	0.0	
45	0	0.0	
45	2.5	0.0	
45	5	0.0	
45	7.5	0.0	
45	10	0.0	
45	12.5	0.0	
45	15	0.0	
45	17.5	0.0	
45	20	0.0	
45	22.5	0.0	
45	25	0.0	
45	27.5	0.0	
45	30	0.0	
45	32.5	0.0	
45	35	0.0	
45	37.5	0.0	
45	40	0.0	
45	42.5	0.0	
45	45	0.0	
45	47.5	0.0	
45	50	0.0	
45	52.5	0.0	
45	55	0.0	
45	57.5	0.0	
45	60	0.0	
45	62.5	0.0	
45	65	0.0	
45	67.5	0.0	
45	70	0.0	
45	72.5	0.0	
45	75	0.0	
45	77.5	0.0	
45	80	0.0	
45	82.5	0.0	
45	85	0.0	
45	87.5	0.0	
45	90	0.0	
45	92.5	0.0	
45	95	0.0	
45	97.5	0.0	
45	100	0.0	
47.5	0	0.0	
47.5	2.5	0.0	
47.5	5	0.0	
47.5	7.5	0.0	
47.5	10	0.0	
[...]
CELL_DATA	2400
SCALARS Rho0 float
LOOKUP_TABLE default
1
1
1
1
1
1
1
1
1
1
1
1
1
0.210332
0.140031
0.0846794
0.00167128
1e-10
1e-10
1e-10
1e-10
1e-10
1e-10
0.00167128
0.0846794
0.140031
0.210332
1
1
1
1
1
1
1
1
1
1
1
1
1
1
1
1
1
1
1
1
1
1
1
1
1
1
0.273651
0.155582
0.0253096
0.000102981
1e-10
1e-10
1e-10
1e-10
1e-10
1e-10
0.000102981
0.0253096
0.155582
0.273651
1
1
1
1
1
1
1
1
1
1
1
1
1
1
1
1
1
1
1
1
1
1
1
1
1
1
0.478174
0.308661
0.12956
0.0561373
1e-10
1e-10
1e-10
1e-10
1e-10
1e-10
0.0561373
0.12956
0.308661
0.478174
1
1
1
1
1
1
1
1
1
1
1
1
1
1
1
1
1
1
1
1
1
1
1
1
1
1
0.873001
0.579338
0.465425
0.278311
0.0887884
3.91564e-08
1e-10
1e-10
3.91564e-08
0.0887884
0.278311
0.465425
0.579338
0.873001
1
1
1
1
1
1
1
1
1
1
1
1
1
1
1
1
1
1
1
1
1
1
1
1
1
1
1
0.590004
0.620967
0.421131
0.281406
0.0786783
0.013448
0.013448
0.0786783
0.281406
0.421131
0.620967
0.590004
1
1
1
1
1
1
1
1
1
1
1
1
1
1
1
1
1
1
1
1
1
1
1
1
1
1
1
1
0.785989
0.708394
0.458826
0.292608
0.153663
0.10293
0.10293
0.153663
0.292608
0.458826
0.708394
0.785989
1
1
1
1
1
1
1
1
1
1
1
1
1
1
1
1
1
1
1
1
1
1
1
1
1
1
1
1
1
0.891847
0.581036
0.474575
0.31247
0.266115
0.266115
0.31247
0.474575
0.581036
0.891847
1
1
1
1
1
1
1
1
1
1
1
1
1
1
1
1
1
1
1
1
1
1
1
1
1
1
1
1
1
1
1
0.697937
0.614917
0.471263
0.434331
0.434331
0.471263
0.614917
0.697937
1
1
1
1
1
1
1
1
1
1
1
1
1
1
1
1
1
1
1
1
1
1
1
1
1
1
1
1
1
1
1
1
0.843481
0.85
0.751055
0.625221
0.625221
0.751055
0.85
0.843481
1
1
1
1
1
1
1
1
1
1
1
1
1
1
1
1
1
1
1
1
1
1
1
1
1
1
1
1
1
1
1
1
1
0.963186
0.849185
0.784077
0.784077
0.849185
0.963186
1
1
1
1
1
1
1
1
1
1
1
1
1
1
1
1
1
1
1
1
1
1
1
1
1
1
1
1
1
1
1
1
1
1
1
0.7699
0.7194
0.7194
0.7699
1
1
1
1
1
1
1
1
1
1
1
1
1
1
1
1
1
1
1
1
1
1
1
1
1
1
1
1
1
1
1
1
1
1
1
1
0.816895
0.840124
0.840124
0.816895
1
1
1
1
1
1
1
1
1
1
1
1
1
1
1
1
1
1
1
1
1
1
1
1
1
1
1
1
1
1
1
1
1
1
1
1
0.918252
0.85
0.85
0.918252
1
1
1
1
1
1
1
1
1
1
1
1
1
1
1
1
1
1
1
1
1
1
1
1
1
1
1
1
1
1
1
1
1
1
1
1
1
0.92733
0.92733
1
1
1
1
1
1
1
1
1
1
1
1
1
1
1
1
1
1
1
1
1
1
1
1
1
1
1
1
1
1
1
1
1
1
1
1
1
1
1
1
1
1
1
1
1
1
1
1
1
1
1
1
1
1
1
1
1
1
1
1
1
1
1
1
1
1
1
1
1
1
1
1
1
1
1
1
1
1
1
1
1
1
1
1
1
1
1
1
1
1
1
1
1
1
1
1
1
1
1
1
1
1
1
1
1
1
1
1
1
1
1
1
1
1
1
1
1
1
1
1
1
1
1
1
1
1
1
1
1
1
1
1
1
1
1
1
1
1
1
1
1
1
1
1
1
1
1
1
1
1
1
1
1
1
1
1
1
1
1
1
1
1
1
1
1
1
1
1
1
1
1
1
1
1
1
1
1
1
1
1
1
1
1
1
1
1
1
1
1
1
1
1
1
1
1
1
1
1
1
1
1
1
1
1
1
1
1
1
1
1
1
1
1
1
1
1
1
1
1
1
1
1
1
1
1
1
1
1
1
1
1
1
1
1
1
1
1
1
1
1
1
1
1
1
1
1
1
1
1
1
1
1
1
1
1
1
1
1
1
1
1
1
1
1
1
1
1
1
1
1
1
1
1
1
1
1
1
1
1
1
1
1
1
1
1
1
1
1
1
1
1
1
1
1
1
1
1
1
1
1
1
1
1
1
1
1
1
1
1
1
1
1
1
1
1
0.97423
0.987306
1
0.965398
0.965398
1
0.987306
0.97423
1
1
1
1
1
1
1
1
1
1
1
1
1
1
1
1
1
1
1
1
1
1
1
1
1
1
1
1
1
1
1
1
0.908266
0.984529
1
0.859615
0.859615
1
0.984529
0.908266
1
1
1
1
1
1
1
1
1
1
1
1
1
1
1
1
1
1
1
1
1
1
1
1
1
1
1
0.976371
1
1
0.975687
1
1
1
1
1
1
1
1
1
1
0.975687
1
1
0.976371
1
1
1
1
1
1
1
1
1
1
1
1
1
1
1
1
1
1
1
1
1
1
0.66124
1
1
0.85
0.85
1
1
0.966997
0.85
0.85
0.966997
1
1
0.85
0.85
1
1
0.66124
1
1
1
1
1
1
1
1
1
1
1
1
1
1
1
1
1
1
1
1
1
1
0.834067
1
1
0.85
0.85
1
1
0.85
0.85
0.85
0.85
1
1
0.85
0.85
1
1
0.834067
1
1
1
1
1
1
1
1
1
1
1
1
1
1
1
1
1
1
1
1
1
1
0.909227
0.86507
1
1
1
1
1
0.85
0.85
0.85
0.85
1
1
1
1
1
0.86507
0.909227
1
1
1
1
1
1
1
1
1
1
1
1
1
1
1
1
1
1
1
1
1
1
0.912288
0.815834
0.85
1
1
1
0.896185
0.85
0.871624
0.871624
0.85
0.896185
1
1
1
0.85
0.815834
0.912288
1
1
1
1
1
1
1
1
1
1
1
1
1
1
1
1
1
1
1
1
1
1
0.949246
0.85
0.832573
1
1
1
0.85
0.856793
1
1
0.856793
0.85
1
1
1
0.832573
0.85
0.949246
1
1
1
1
1
1
1
1
1
1
1
1
1
1
1
1
1
1
1
1
1
1
0.939139
0.821037
0.987058
1
1
0.85
0.85
0.85
1
1
0.85
0.85
0.85
1
1
0.987058
0.821037
0.939139
1
1
1
1
1
1
1
1
1
1
1
1
1
1
1
1
1
1
1
1
1
1
0.783692
0.795543
1
1
1
0.891223
0.85
0.85
1
1
0.85
0.85
0.891223
1
1
1
0.795543
0.783692
1
1
1
1
1
1
1
1
1
1
1
1
1
1
1
1
1
1
1
1
1
1
0.821255
0.848897
1
1
0.85
0.85
0.85
0.85
1
1
0.85
0.85
0.85
0.85
1
1
0.848897
0.821255
1
1
1
1
1
1
1
1
1
1
1
1
1
1
1
1
1
1
1
1
1
1
0.848454
0.832608
1
0.994864
0.85
0.85
0.85
0.85
1
1
0.85
0.85
0.85
0.85
0.994864
1
0.832608
0.848454
1
1
1
1
1
1
1
1
1
1
1
1
1
1
1
1
1
1
1
1
1
1
0.829497
0.960327
1
0.95444
0.85
0.85
0.85
0.85
1
1
0.85
0.85
0.85
0.85
0.95444
1
0.960327
0.829497
1
1
1
1
1
1
1
1
1
1
1
1
1
1
1
1
1
1
1
1
1
1
0.82083
0.950869
0.979077
1
0.85
0.85
0.85
0.85
1
1
0.85
0.85
0.85
0.85
1
0.979077
0.950869
0.82083
1
1
1
1
1
1
1
1
1
1
1
1
1
1
1
1
1
1
1
1
1
1
0.812589
0.939704
0.953039
0.85
0.85
0.85
0.85
0.833966
1
1
0.833966
0.85
0.85
0.85
0.85
0.953039
0.939704
0.812589
1
1
1
1
1
1
1
1
1
1
1
1
1
1
1
1
1
1
1
1
1
1
0.815669
0.943335
0.976409
0.85
0.85
0.85
0.837451
0.992221
0.982309
0.982309
0.992221
0.837451
0.85
0.85
0.85
0.976409
0.943335
0.815669
1
1
1
1
1
1
1
1
1
1
1
1
1
1
1
1
1
1
1
1
1
1
0.819915
0.991782
0.954956
0.85
0.85
0.840057
0.85
0.98127
0.92235
0.92235
0.98127
0.85
0.840057
0.85
0.85
0.954956
0.991782
0.819915
1
1
1
1
1
1
1
1
1
1
1
1
1
1
1
1
1
1
1
1
1
1
0.848411
0.979171
0.807475
0.85
0.839294
0.827699
0.7799
0.777451
0.780644
0.780644
0.777451
0.7799
0.827699
0.839294
0.85
0.807475
0.979171
0.848411
1
1
1
1
1
1
1
1
1
1
1
0.746352
1
1
1
1
1
1
1
1
1
1
0.786813
0.973687
0.762712
0.810786
0.786622
0.7726
0.74955
0.753691
0.772225
0.772225
0.753691
0.74955
0.7726
0.786622
0.810786
0.762712
0.973687
0.786813
1
1
1
1
1
1
1
1
1
1
0.746352
0.293526
1
1
1
1
1
1
1
1
1
1
0.746485
0.97066
0.756716
0.759819
0.742792
0.731735
0.741969
0.727894
0.712519
0.712519
0.727894
0.741969
0.731735
0.742792
0.759819
0.756716
0.97066
0.746485
1
1
1
1
1
1
1
1
1
1
0.293526
1e-10
1
1
1
1
1
1
1
1
1
1
0.729327
0.944095
0.719109
0.707954
0.727273
0.758794
0.722375
0.715488
0.720388
0.720388
0.715488
0.722375
0.758794
0.727273
0.707954
0.719109
0.944095
0.729327
1
1
1
1
1
1
1
1
1
1
1e-10
1e-10
0.841678
1
1
1
1
1
1
1
1
1
0.837446
0.875432
0.710062
0.74799
0.929385
0.862198
0.863486
0.877864
0.870125
0.870125
0.877864
0.863486
0.862198
0.929385
0.74799
0.710062
0.875432
0.837446
1
1
1
1
1
1
1
1
1
0.841678
1e-10
1e-10
0.196497
1
1
1
1
1
1
1
1
1
1
0.886063
0.740818
0.888202
0.853794
0.869646
0.852872
0.85
0.85
0.85
0.85
0.852872
0.869646
0.853794
0.888202
0.740818
0.886063
1
1
1
1
1
1
1
1
1
1
0.196497
1e-10
1e-10
1.5714e-09
0.820537
1
1
1
1
1
1
1
1
1
0.887547
0.775692
0.872874
0.853059
0.85
0.85
0.85
0.85
0.85
0.85
0.85
0.85
0.853059
0.872874
0.775692
0.887547
1
1
1
1
1
1
1
1
1
0.820537
1.5714e-09
1e-10
1e-10
1e-10
0.413582
1
1
1
1
1
1
1
1
1
0.760028
0.73681
0.85
0.85
0.85
0.85
0.85
0.85
0.85
0.85
0.85
0.85
0.85
0.85
0.73681
0.760028
1
1
1
1
1
1
1
1
1
0.413582
1e-10
1e-10
1e-10
1e-10
0.0020046
0.854145
1
1
1
1
1
1
1
1
1
0.67417
0.85
0.85
0.85
0.85
0.85
0.85
0.85
0.85
0.85
0.85
0.85
0.85
0.67417
1
1
1
1
1
1
1
1
1
0.854145
0.0020046
1e-10
1e-10
1e-10
1e-10
1e-10
0.232042
1
1
1
1
1
1
1
1
1
0.699022
0.85
0.85
0.85
0.85
0.85
0.85
0.85
0.85
0.85
0.85
0.85
0.85
0.699022
1
1
1
1
1
1
1
1
1
0.232042
1e-10
1e-10
1e-10
1e-10
1e-10
1e-10
0.0223529
0.843986
1
1
1
1
1
1
1
1
1
0.85
0.85
0.85
0.85
0.85
0.85
0.85
0.85
0.85
0.85
0.85
0.85
1
1
1
1
1
1
1
1
1
0.843986
0.0223529
1e-10
1e-10
1e-10
1e-10
1e-10
1e-10
1e-10
0.129378
0.995955
1
1
1
1
1
1
1
1
0.904059
0.85
0.85
0.85
0.85
0.846653
0.846653
0.85
0.85
0.85
0.85
0.904059
1
1
1
1
1
1
1
1
0.995955
0.129378
1e-10
1e-10
1e-10
1e-10
1e-10
1e-10
1e-10
1e-10
1.85206e-07
0.550492
1
1
1
1
1
1
1
1
1
0.839503
0.85
0.832356
0.830766
0.837964
0.837964
0.830766
0.832356
0.85
0.839503
1
1
1
1
1
1
1
1
1
0.550492
1.85206e-07
1e-10
1e-10
1e-10
1e-10
1e-10
1e-10
1e-10
1e-10
1e-10
0.107998
0.874322
1
1
1
1
1
1
1
1
0.976659
0.85
0.814763
0.820727
0.843173
0.843173
0.820727
0.814763
0.85
0.976659
1
1
1
1
1
1
1
1
0.874322
0.107998
1e-10
1e-10
1e-10
1e-10
1e-10
1e-10
1e-10
1e-10
1e-10
1e-10
1e-10
0.136923
0.85
1
1
1
1
1
1
1
1
0.90935
0.840126
0.797119
0.813902
0.813902
0.797119
0.840126
0.90935
1
1
1
1
1
1
1
1
0.85
0.136923
1e-10
1e-10
1e-10
1e-10
1e-10
1e-10
1e-10
1e-10
1e-10
1e-10
1e-10
1e-10
5.09178e-08
0.290089
1
1
1
1
1
1
1
1
1
0.843918
0.803199
0.841853
0.841853
0.803199
0.843918
1
1
1
1
1
1
1
1
1
0.290089
5.09178e-08
1e-10
1e-10
1e-10
1e-10
1e-10
1e-10
1e-10
1e-10
1e-10
1e-10
1e-10
1e-10
1e-10
0.0876706
0.49898
1
1
1
1
1
1
1
1
1
0.80374
0.662415
0.662415
0.80374
1
1
1
1
1
1
1
1
1
0.49898
0.0876706
1e-10
1e-10
1e-10
1e-10
1e-10
1e-10
1e-10
1e-10
1e-10
1e-10
1e-10
1e-10
1e-10
1e-10
1e-10
0.0846384
0.469978
1
1
1
1
1
1
1
1
0.854502
0.780224
0.780224
0.854502
1
1
1
1
1
1
1
1
0.469978
0.0846384
1e-10
1e-10
1e-10
1e-10
1e-10
1e-10
1e-10
1e-10
1e-10
1e-10
1e-10
1e-10
1e-10
1e-10
1e-10
1e-10
1e-10
0.0782786
0.520723
1
1
1
1
1
1
1
1
0.668091
0.668091
1
1
1
1
1
1
1
1
0.520723
0.0782786
1e-10
1e-10
1e-10
1e-10
1e-10
1e-10
1e-10
1e-10
1e-10
1e-10
1e-10
1e-10
1e-10
1e-10
1e-10
1e-10
1e-10
1e-10
1e-10
0.089482
0.346578
0.917685
1
1
1
1
1
1
0.874217
0.874217
1
1
1
1
1
1
0.917685
0.346578
0.089482
1e-10
1e-10
1e-10
1e-10
1e-10
1e-10
1e-10
1e-10
1e-10
1e-10
1e-10
1e-10
1e-10
1e-10
1e-10
1e-10
1e-10
1e-10
1e-10
1e-10
1e-10
1e-10
0.0926798
0.723919
1
1
1
1
1
1
1
1
1
1
1
1
0.723919
0.0926798
1e-10
1e-10
1e-10
1e-10
1e-10
1e-10
1e-10
1e-10
1e-10
1e-10
1e-10
1e-10
1e-10
1e-10
1e-10
1e-10
1e-10
1e-10
1e-10
1e-10
1e-10
1e-10
1e-10
1e-10
1e-10
0.0614074
0.603409
0.869801
1
1
1
1
1
1
1
1
0.869801
0.603409
0.0614074
1e-10
1e-10
1e-10
1e-10
1e-10
1e-10
1e-10
1e-10
1e-10
1e-10
1e-10
1e-10
1e-10

SCALARS Rho1 float
LOOKUP_TABLE default
1
1
1
1
1
1
1
1
1
1
1
1
1
0.128998
0.0278142
0.0144304
0.000147305
1e-10
1e-10
1e-10
1e-10
1e-10
1e-10
0.000147305
0.0144304
0.0278142
0.128998
1
1
1
1
1
1
1
1
1
1
1
1
1
1
1
1
1
1
1
1
1
1
1
1
1
1
1e-10
1e-10
0.000328394
4.27904e-06
1e-10
1e-10
1e-10
1e-10
1e-10
1e-10
4.27904e-06
0.000328394
1e-10
1e-10
1
1
1
1
1
1
1
1
1
1
1
1
1
1
1
1
1
1
1
1
1
1
1
1
1
1
0.00451521
1.21449e-10
1e-10
0.000210588
1e-10
1e-10
1e-10
1e-10
1e-10
1e-10
0.000210588
1e-10
1.21449e-10
0.00451521
1
1
1
1
1
1
1
1
1
1
1
1
1
1
1
1
1
1
1
1
1
1
1
1
1
1
0.873001
0.153759
1.5543e-10
2.58406e-10
4.71775e-05
1.64612e-09
1e-10
1e-10
1.64612e-09
4.71775e-05
2.58406e-10
1.5543e-10
0.153759
0.873001
1
1
1
1
1
1
1
1
1
1
1
1
1
1
1
1
1
1
1
1
1
1
1
1
1
1
1
0.052667
4.51895e-06
0.0279803
2.35399e-10
0.00212849
0.000167157
0.000167157
0.00212849
2.35399e-10
0.0279803
4.51895e-06
0.052667
1
1
1
1
1
1
1
1
1
1
1
1
1
1
1
1
1
1
1
1
1
1
1
1
1
1
1
1
0.738616
0.0927197
2.6161e-06
1e-10
1e-10
0.00175853
0.00175853
1e-10
1e-10
2.6161e-06
0.0927197
0.738616
1
1
1
1
1
1
1
1
1
1
1
1
1
1
1
1
1
1
1
1
1
1
1
1
1
1
1
1
1
0.131442
0.00979883
1e-10
1e-10
6.97528e-08
6.97528e-08
1e-10
1e-10
0.00979883
0.131442
1
1
1
1
1
1
1
1
1
1
1
1
1
1
1
1
1
1
1
1
1
1
1
1
1
1
1
1
1
1
1
0.0209287
6.22095e-10
1.80225e-10
1.10556e-05
1.10556e-05
1.80225e-10
6.22095e-10
0.0209287
1
1
1
1
1
1
1
1
1
1
1
1
1
1
1
1
1
1
1
1
1
1
1
1
1
1
1
1
1
1
1
1
0.471953
0.0292633
2.02519e-06
2.92577e-08
2.92577e-08
2.02519e-06
0.0292633
0.471953
1
1
1
1
1
1
1
1
1
1
1
1
1
1
1
1
1
1
1
1
1
1
1
1
1
1
1
1
1
1
1
1
1
0.366579
0.0471398
1.28634e-06
1.28634e-06
0.0471398
0.366579
1
1
1
1
1
1
1
1
1
1
1
1
1
1
1
1
1
1
1
1
1
1
1
1
1
1
1
1
1
1
1
1
1
1
1
0.369623
0.0966413
0.0966413
0.369623
1
1
1
1
1
1
1
1
1
1
1
1
1
1
1
1
1
1
1
1
1
1
1
1
1
1
1
1
1
1
1
1
1
1
1
1
0.661115
0.203111
0.203111
0.661115
1
1
1
1
1
1
1
1
1
1
1
1
1
1
1
1
1
1
1
1
1
1
1
1
1
1
1
1
1
1
1
1
1
1
1
1
0.918252
0.598587
0.598587
0.918252
1
1
1
1
1
1
1
1
1
1
1
1
1
1
1
1
1
1
1
1
1
1
1
1
1
1
1
1
1
1
1
1
1
1
1
1
1
0.92733
0.92733
1
1
1
1
1
1
1
1
1
1
1
1
1
1
1
1
1
1
1
1
1
1
1
1
1
1
1
1
1
1
1
1
1
1
1
1
1
1
1
1
1
1
1
1
1
1
1
1
1
1
1
1
1
1
1
1
1
1
1
1
1
1
1
1
1
1
1
1
1
1
1
1
1
1
1
1
1
1
1
1
1
1
1
1
1
1
1
1
1
1
1
1
1
1
1
1
1
1
1
1
1
1
1
1
1
1
1
1
1
1
1
1
1
1
1
1
1
1
1
1
1
1
1
1
1
1
1
1
1
1
1
1
1
1
1
1
1
1
1
1
1
1
1
1
1
1
1
1
1
1
1
1
1
1
1
1
1
1
1
1
1
1
1
1
1
1
1
1
1
1
1
1
1
1
1
1
1
1
1
1
1
1
1
1
1
1
1
1
1
1
1
1
1
1
1
1
1
1
1
1
1
1
1
1
1
1
1
1
1
1
1
1
1
1
1
1
1
1
1
1
1
1
1
1
1
1
1
1
1
1
1
1
1
1
1
1
1
1
1
1
1
1
1
1
1
1
1
1
1
1
1
1
1
1
1
1
1
1
1
1
1
1
1
1
1
1
1
1
1
1
1
1
1
1
1
1
1
1
1
1
1
1
1
1
1
1
1
1
1
1
1
1
1
1
1
1
1
1
1
1
1
1
1
1
1
1
1
1
1
1
1
1
1
1
1
0.97423
0.987306
1
0.965398
0.965398
1
0.987306
0.97423
1
1
1
1
1
1
1
1
1
1
1
1
1
1
1
1
1
1
1
1
1
1
1
1
1
1
1
1
1
1
1
1
0.908266
0.984529
1
0.859615
0.859615
1
0.984529
0.908266
1
1
1
1
1
1
1
1
1
1
1
1
1
1
1
1
1
1
1
1
1
1
1
1
1
1
1
0.976371
1
1
0.975687
1
1
1
1
1
1
1
1
1
1
0.975687
1
1
0.976371
1
1
1
1
1
1
1
1
1
1
1
1
1
1
1
1
1
1
1
1
1
1
0.66124
1
1
0.85
0.85
1
1
0.966997
0.85
0.85
0.966997
1
1
0.85
0.85
1
1
0.66124
1
1
1
1
1
1
1
1
1
1
1
1
1
1
1
1
1
1
1
1
1
1
0.834067
1
1
0.71709
0.85
1
1
0.73258
0.71616
0.71616
0.73258
1
1
0.85
0.71709
1
1
0.834067
1
1
1
1
1
1
1
1
1
1
1
1
1
1
1
1
1
1
1
1
1
1
0.907069
0.735484
1
1
0.856666
0.986189
1
0.768946
0.704758
0.704758
0.768946
1
0.986189
0.856666
1
1
0.735484
0.907069
1
1
1
1
1
1
1
1
1
1
1
1
1
1
1
1
1
1
1
1
1
1
0.784805
0.326033
0.73553
1
0.774267
0.815711
0.896185
0.763666
0.871624
0.871624
0.763666
0.896185
0.815711
0.774267
1
0.73553
0.326033
0.784805
1
1
1
1
1
1
1
1
1
1
1
1
1
1
1
1
1
1
1
1
1
1
0.92132
0.621184
0.357611
1
0.892673
0.83805
0.806759
0.856793
1
1
0.856793
0.806759
0.83805
0.892673
1
0.357611
0.621184
0.92132
1
1
1
1
1
1
1
1
1
1
1
1
1
1
1
1
1
1
1
1
1
1
0.857491
0.534813
0.500712
0.607227
0.974169
0.845587
0.697538
0.85
0.918528
0.918528
0.85
0.697538
0.845587
0.974169
0.607227
0.500712
0.534813
0.857491
1
1
1
1
1
1
1
1
1
1
1
1
1
1
1
1
1
1
1
1
1
1
0.646424
0.514342
0.455233
0.61737
0.711084
0.891223
0.727507
0.682166
0.846751
0.846751
0.682166
0.727507
0.891223
0.711084
0.61737
0.455233
0.514342
0.646424
1
1
1
1
1
1
1
1
1
1
1
1
1
1
1
1
1
1
1
1
1
1
0.522392
0.39983
0.668753
0.656306
0.609844
0.553424
0.679421
0.679433
0.773864
0.773864
0.679433
0.679421
0.553424
0.609844
0.656306
0.668753
0.39983
0.522392
1
1
1
1
1
1
1
1
1
1
1
1
1
1
1
1
1
1
1
1
1
1
0.608779
0.524159
0.567837
0.625835
0.450069
0.456124
0.516564
0.587347
0.68527
0.68527
0.587347
0.516564
0.456124
0.450069
0.625835
0.567837
0.524159
0.608779
1
1
1
1
1
1
1
1
1
1
1
1
1
1
1
1
1
1
1
1
1
1
0.679882
0.782218
0.538227
0.678035
0.396407
0.435301
0.490915
0.517561
0.584793
0.584793
0.517561
0.490915
0.435301
0.396407
0.678035
0.538227
0.782218
0.679882
1
1
1
1
1
1
1
1
1
1
1
1
1
1
1
1
1
1
1
1
1
1
0.638224
0.723462
0.543827
0.459352
0.394266
0.425365
0.437403
0.431032
0.602805
0.602805
0.431032
0.437403
0.425365
0.394266
0.459352
0.543827
0.723462
0.638224
1
1
1
1
1
1
1
1
1
1
1
1
1
1
1
1
1
1
1
1
1
1
0.609042
0.726929
0.611717
0.283462
0.370507
0.38221
0.323192
0.383605
0.539689
0.539689
0.383605
0.323192
0.38221
0.370507
0.283462
0.611717
0.726929
0.609042
1
1
1
1
1
1
1
1
1
1
1
1
1
1
1
1
1
1
1
1
1
1
0.531253
0.56487
0.554765
0.348553
0.302679
0.282018
0.31165
0.313834
0.487324
0.487324
0.313834
0.31165
0.282018
0.302679
0.348553
0.554765
0.56487
0.531253
1
1
1
1
1
1
1
1
1
1
1
1
1
1
1
1
1
1
1
1
1
1
0.448907
0.546914
0.662333
0.281002
0.208243
0.204708
0.180744
0.345299
0.42163
0.42163
0.345299
0.180744
0.204708
0.208243
0.281002
0.662333
0.546914
0.448907
1
1
1
1
1
1
1
1
1
1
1
1
1
1
1
1
1
1
1
1
1
1
0.360981
0.583367
0.372936
0.141859
0.155699
0.173786
0.328439
0.380265
0.364902
0.364902
0.380265
0.328439
0.173786
0.155699
0.141859
0.372936
0.583367
0.360981
1
1
1
1
1
1
1
1
1
1
1
0.746352
1
1
1
1
1
1
1
1
1
1
0.456872
0.52621
0.376857
0.20179
0.281038
0.296164
0.396073
0.4159
0.348572
0.348572
0.4159
0.396073
0.296164
0.281038
0.20179
0.376857
0.52621
0.456872
1
1
1
1
1
1
1
1
1
1
0.746352
0.293526
1
1
1
1
1
1
1
1
1
1
0.569513
0.327701
0.344811
0.292095
0.303984
0.409165
0.420415
0.413097
0.446098
0.446098
0.413097
0.420415
0.409165
0.303984
0.292095
0.344811
0.327701
0.569513
1
1
1
1
1
1
1
1
1
1
0.293526
1e-10
1
1
1
1
1
1
1
1
1
1
0.652673
0.345308
0.370077
0.352117
0.494179
0.365194
0.350892
0.342553
0.324335
0.324335
0.342553
0.350892
0.365194
0.494179
0.352117
0.370077
0.345308
0.652673
1
1
1
1
1
1
1
1
1
1
1e-10
1e-10
0.448688
1
1
1
1
1
1
1
1
1
0.781778
0.590844
0.363541
0.46731
0.317132
0.505089
0.514573
0.474974
0.482949
0.482949
0.474974
0.514573
0.505089
0.317132
0.46731
0.363541
0.590844
0.781778
1
1
1
1
1
1
1
1
1
0.448688
1e-10
1e-10
0.044573
1
1
1
1
1
1
1
1
1
1
0.548768
0.447932
0.452183
0.494248
0.482904
0.512152
0.523755
0.533618
0.533618
0.523755
0.512152
0.482904
0.494248
0.452183
0.447932
0.548768
1
1
1
1
1
1
1
1
1
1
0.044573
1e-10
1e-10
1e-10
0.513936
1
1
1
1
1
1
1
1
1
0.625641
0.113017
0.457063
0.527256
0.513173
0.509823
0.512656
0.516056
0.516056
0.512656
0.509823
0.513173
0.527256
0.457063
0.113017
0.625641
1
1
1
1
1
1
1
1
1
0.513936
1e-10
1e-10
1e-10
1e-10
0.0117497
1
1
1
1
1
1
1
1
1
0.745837
0.367542
0.559495
0.538019
0.508982
0.496737
0.495143
0.492866
0.492866
0.495143
0.496737
0.508982
0.538019
0.559495
0.367542
0.745837
1
1
1
1
1
1
1
1
1
0.0117497
1e-10
1e-10
1e-10
1e-10
2.07047e-05
0.4954
1
1
1
1
1
1
1
1
1
0.375206
0.534049
0.455957
0.481486
0.463833
0.466327
0.471743
0.471743
0.466327
0.463833
0.481486
0.455957
0.534049
0.375206
1
1
1
1
1
1
1
1
1
0.4954
2.07047e-05
1e-10
1e-10
1e-10
1e-10
1e-10
0.00727483
1
1
1
1
1
1
1
1
1
0.669308
0.49425
0.44091
0.391538
0.410763
0.410203
0.412719
0.412719
0.410203
0.410763
0.391538
0.44091
0.49425
0.669308
1
1
1
1
1
1
1
1
1
0.00727483
1e-10
1e-10
1e-10
1e-10
1e-10
1e-10
0.00134849
0.425096
1
1
1
1
1
1
1
1
1
0.398249
0.38223
0.365359
0.347768
0.353954
0.351089
0.351089
0.353954
0.347768
0.365359
0.38223
0.398249
1
1
1
1
1
1
1
1
1
0.425096
0.00134849
1e-10
1e-10
1e-10
1e-10
1e-10
1e-10
1e-10
0.0238359
0.995955
1
1
1
1
1
1
1
1
0.805978
0.346803
0.308762
0.305724
0.293195
0.310588
0.310588
0.293195
0.305724
0.308762
0.346803
0.805978
1
1
1
1
1
1
1
1
0.995955
0.0238359
1e-10
1e-10
1e-10
1e-10
1e-10
1e-10
1e-10
1e-10
2.10013e-09
0.149499
1
1
1
1
1
1
1
1
1
0.571714
0.294341
0.357244
0.357043
0.30545
0.30545
0.357043
0.357244
0.294341
0.571714
1
1
1
1
1
1
1
1
1
0.149499
2.10013e-09
1e-10
1e-10
1e-10
1e-10
1e-10
1e-10
1e-10
1e-10
1e-10
0.00934627
0.710326
1
1
1
1
1
1
1
1
0.660717
0.27638
0.431776
0.371732
0.224423
0.224423
0.371732
0.431776
0.27638
0.660717
1
1
1
1
1
1
1
1
0.710326
0.00934627
1e-10
1e-10
1e-10
1e-10
1e-10
1e-10
1e-10
1e-10
1e-10
1e-10
1e-10
0.0284521
0.85
1
1
1
1
1
1
1
1
0.616399
0.266589
0.455722
0.368853
0.368853
0.455722
0.266589
0.616399
1
1
1
1
1
1
1
1
0.85
0.0284521
1e-10
1e-10
1e-10
1e-10
1e-10
1e-10
1e-10
1e-10
1e-10
1e-10
1e-10
1e-10
1.54807e-10
0.0892234
1
1
1
1
1
1
1
1
1
0.37401
0.425167
0.146168
0.146168
0.425167
0.37401
1
1
1
1
1
1
1
1
1
0.0892234
1.54807e-10
1e-10
1e-10
1e-10
1e-10
1e-10
1e-10
1e-10
1e-10
1e-10
1e-10
1e-10
1e-10
1e-10
0.00134827
0.160932
1
1
1
1
1
1
1
1
1
0.420779
0.167107
0.167107
0.420779
1
1
1
1
1
1
1
1
1
0.160932
0.00134827
1e-10
1e-10
1e-10
1e-10
1e-10
1e-10
1e-10
1e-10
1e-10
1e-10
1e-10
1e-10
1e-10
1e-10
1e-10
0.00197887
0.142894
1
1
1
1
1
1
1
1
0.666642
0.454379
0.454379
0.666642
1
1
1
1
1
1
1
1
0.142894
0.00197887
1e-10
1e-10
1e-10
1e-10
1e-10
1e-10
1e-10
1e-10
1e-10
1e-10
1e-10
1e-10
1e-10
1e-10
1e-10
1e-10
1e-10
0.00161571
0.15854
1
1
1
1
1
1
1
1
0.249565
0.249565
1
1
1
1
1
1
1
1
0.15854
0.00161571
1e-10
1e-10
1e-10
1e-10
1e-10
1e-10
1e-10
1e-10
1e-10
1e-10
1e-10
1e-10
1e-10
1e-10
1e-10
1e-10
1e-10
1e-10
1e-10
0.00123019
0.122045
0.917685
1
1
1
1
1
1
0.691352
0.691352
1
1
1
1
1
1
0.917685
0.122045
0.00123019
1e-10
1e-10
1e-10
1e-10
1e-10
1e-10
1e-10
1e-10
1e-10
1e-10
1e-10
1e-10
1e-10
1e-10
1e-10
1e-10
1e-10
1e-10
1e-10
1e-10
1e-10
1e-10
0.0215591
0.526629
1
1
1
1
1
1
1
1
1
1
1
1
0.526629
0.0215591
1e-10
1e-10
1e-10
1e-10
1e-10
1e-10
1e-10
1e-10
1e-10
1e-10
1e-10
1e-10
1e-10
1e-10
1e-10
1e-10
1e-10
1e-10
1e-10
1e-10
1e-10
1e-10
1e-10
1e-10
1e-10
0.00156088
0.00517083
0.695841
1
1
1
1
1
1
1
1
0.695841
0.00517083
0.00156088
1e-10
1e-10
1e-10
1e-10
1e-10
1e-10
1e-10
1e-10
1e-10
1e-10
1e-10
1e-10
1e-10


POINT_DATA	7401
VECTORS u0 float
0	0	0
0	0	0
0	0	0
0	0	0
0	0	0
0	0	0
0	0	0
0	0	0
0	0	0
0	0	0
0	0	0
0	0	0
0	0	0
0	0	0
0	0	0
0	0	0
0	0	0
0	0	0
0	0	0
0	0	0
0	0	0
0	0	0
0	0	0
0	0	0
0	0	0
0	0	0
0	0	0
0	0	0
0	0	0
0	0	0
0	0	0
0	0	0
0	0	0
0	0	0
0	0	0
0	0	0
0	0	0
0	0	0
0	0	0
0	0	0
0	0	0
-0.000387273	-0.000192915	0
-0.000242169	-0.000119142	0