# vtk DataFile Version 4.1
vtk output
ASCII
DATASET UNSTRUCTURED_GRID

POINTS	56171	float
0	0	0	
0.1	0	0	
0.2	0	0	
0.3	0	0	
0.4	0	0	
0.5	0	0	
0.6	0	0	
0.7	0	0	
0.8	0	0	
0.9	0	0	
1	0	0	
0	0.1	0	
0.1	0.1	0	
0.2	0.1	0	
0.3	0.1	0	
0.4	0.1	0	
0.5	0.1	0	
0.6	0.1	0	
0.7	0.1	0	
0.8	0.1	0	
0.9	0.1	0	
1	0.1	0	
0	0.2	0	
0.1	0.2	0	
0.2	0.2	0	
0.3	0.2	0	
0.4	0.2	0	
0.5	0.2	0	
0.6	0.2	0	
0.7	0.2	0	
0.8	0.2	0	
0.9	0.2	0	
1	0.2	0	
0	0.3	0	
0.1	0.3	0	
0.2	0.3	0	
0.3	0.3	0	
0.4	0.3	0	
0.5	0.3	0	
0.6	0.3	0	
0.7	0.3	0	
0.8	0.3	0	
0.9	0.3	0	
1	0.3	0	
0	0.4	0	
0.1	0.4	0	
0.2	0.4	0	
0.3	0.4	0	
0.4	0.4	0	
0.5	0.4	0	
0.6	0.4	0	
0.7	0.4	0	
0.8	0.4	0	
0.9	0.4	0	
1	0.4	0	
0	0.5	0	
0.1	0.5	0	
0.2	0.5	0	
0.3	0.5	0	
0.4	0.5	0	
0.5	0.5	0	
0.6	0.5	0	
0.7	0.5	0	
0.8	0.5	0	
0.9	0.5	0	
1	0.5	0	
0	0.6	0	
0.1	0.6	0	
0.2	0.6	0	
0.3	0.6	0	
0.4	0.6	0	
0.5	0.6	0	
0.6	0.6	0	
0.7	0.6	0	
0.8	0.6	0	
0.9	0.6	0	
1	0.6	0	
0	0.7	0	
0.1	0.7	0	
0.2	0.7	0	
0.3	0.7	0	
0.4	0.7	0	
0.5	0.7	0	
0.6	0.7	0	
0.7	0.7	0	
0.8	0.7	0	
0.9	0.7	0	
1	0.7	0	
0	0.8	0	
0.1	0.8	0	
0.2	0.8	0	
0.3	0.8	0	
0.4	0.8	0	
0.5	0.8	0	
0.6	0.8	0	
0.7	0.8	0	
0.8	0.8	0	
0.9	0.8	0	
1	0.8	0	
0	0.9	0	
0.1	0.9	0	
0.2	0.9	0	
0.3	0.9	0	
0.4	0.9	0	
0.5	0.9	0	
0.6	0.9	0	
0.7	0.9	0	
0.8	0.9	0	
0.9	0.9	0	
1	0.9	0	
0	1	0	
0.1	1	0	
0.2	1	0	
0.3	1	0	
0.4	1	0	
0.5	1	0	
0.6	1	0	
0.7	1	0	
0.8	1	0	
0.9	1	0	
1	1	0	
0	1.1	0	
0.1	1.1	0	
0.2	1.1	0	
0.3	1.1	0	
0.4	1.1	0	
0.5	1.1	0	
0.6	1.1	0	
0.7	1.1	0	
0.8	1.1	0	
0.9	1.1	0	
1	1.1	0	
0	1.2	0	
0.1	1.2	0	
0.2	1.2	0	
0.3	1.2	0	
0.4	1.2	0	
0.5	1.2	0	
0.6	1.2	0	
0.7	1.2	0	
0.8	1.2	0	
0.9	1.2	0	
1	1.2	0	
0	1.3	0	
0.1	1.3	0	
0.2	1.3	0	
0.3	1.3	0	
0.4	1.3	0	
0.5	1.3	0	
0.6	1.3	0	
0.7	1.3	0	
0.8	1.3	0	
0.9	1.3	0	
1	1.3	0	
0	1.4	0	
0.1	1.4	0	
0.2	1.4	0	
0.3	1.4	0	
0.4	1.4	0	
0.5	1.4	0	
0.6	1.4	0	
0.7	1.4	0	
0.8	1.4	0	
0.9	1.4	0	
1	1.4	0	
0	1.5	0	
0.1	1.5	0	
0.2	1.5	0	
0.3	1.5	0	
0.4	1.5	0	
0.5	1.5	0	
0.6	1.5	0	
0.7	1.5	0	
0.8	1.5	0	
0.9	1.5	0	
1	1.5	0	
0	1.6	0	
0.1	1.6	0	
0.2	1.6	0	
0.3	1.6	0	
0.4	1.6	0	
0.5	1.6	0	
0.6	1.6	0	
0.7	1.6	0	
0.8	1.6	0	
0.9	1.6	0	
1	1.6	0	
0	1.7	0	
0.1	1.7	0	
0.2	1.7	0	
0.3	1.7	0	
0.4	1.7	0	
0.5	1.7	0	
0.6	1.7	0	
0.7	1.7	0	
0.8	1.7	0	
0.9	1.7	0	
1	1.7	0	
0	1.8	0	
0.1	1.8	0	
0.2	1.8	0	
0.3	1.8	0	
0.4	1.8	0	
0.5	1.8	0	
0.6	1.8	0	
0.7	1.8	0	
0.8	1.8	0	
0.9	1.8	0	
1	1.8	0	
0	1.9	0	
0.1	1.9	0	
0.2	1.9	0	
0.3	1.9	0	
0.4	1.9	0	
0.5	1.9	0	
0.6	1.9	0	
0.7	1.9	0	
0.8	1.9	0	
0.9	1.9	0	
1	1.9	0	
0	2	0	
0.1	2	0	
0.2	2	0	
0.3	2	0	
0.4	2	0	
0.5	2	0	
0.6	2	0	
0.7	2	0	
0.8	2	0	
0.9	2	0	
1	2	0	
0	2.1	0	
0.1	2.1	0	
0.2	2.1	0	
0.3	2.1	0	
0.4	2.1	0	
0.5	2.1	0	
0.6	2.1	0	
0.7	2.1	0	
0.8	2.1	0	
0.9	2.1	0	
1	2.1	0	
0	2.2	0	
0.1	2.2	0	
0.2	2.2	0	
0.3	2.2	0	
0.4	2.2	0	
0.5	2.2	0	
0.6	2.2	0	
0.7	2.2	0	
0.8	2.2	0	
0.9	2.2	0	
1	2.2	0	
0	2.3	0	
0.1	2.3	0	
0.2	2.3	0	
0.3	2.3	0	
0.4	2.3	0	
0.5	2.3	0	
0.6	2.3	0	
0.7	2.3	0	
0.8	2.3	0	
0.9	2.3	0	
1	2.3	0	
0	2.4	0	
0.1	2.4	0	
0.2	2.4	0	
0.3	2.4	0	
0.4	2.4	0	
0.5	2.4	0	
0.6	2.4	0	
0.7	2.4	0	
0.8	2.4	0	
0.9	2.4	0	
1	2.4	0	
0	2.5	0	
0.1	2.5	0	
0.2	2.5	0	
0.3	2.5	0	
0.4	2.5	0	
0.5	2.5	0	
0.6	2.5	0	
0.7	2.5	0	
0.8	2.5	0	
0.9	2.5	0	
1	2.5	0	
0	0	0.1	
0.1	0	0.1	
0.2	0	0.1	
0.3	0	0.1	
0.4	0	0.1	
0.5	0	0.1	
0.6	0	0.1	
0.7	0	0.1	
0.8	0	0.1	
0.9	0	0.1	
1	0	0.1	
0	0.1	0.1	
0.1	0.1	0.1	
0.2	0.1	0.1	
0.3	0.1	0.1	
0.4	0.1	0.1	
0.5	0.1	0.1	
0.6	0.1	0.1	
0.7	0.1	0.1	
0.8	0.1	0.1	
0.9	0.1	0.1	
1	0.1	0.1	
0	0.2	0.1	
0.1	0.2	0.1	
0.2	0.2	0.1	
0.3	0.2	0.1	
0.4	0.2	0.1	
0.5	0.2	0.1	
0.6	0.2	0.1	
0.7	0.2	0.1	
0.8	0.2	0.1	
0.9	0.2	0.1	
1	0.2	0.1	
0	0.3	0.1	
0.1	0.3	0.1	
0.2	0.3	0.1	
0.3	0.3	0.1	
0.4	0.3	0.1	
0.5	0.3	0.1	
0.6	0.3	0.1	
0.7	0.3	0.1	
0.8	0.3	0.1	
0.9	0.3	0.1	
1	0.3	0.1	
0	0.4	0.1	
0.1	0.4	0.1	
0.2	0.4	0.1	
0.3	0.4	0.1	
0.4	0.4	0.1	
0.5	0.4	0.1	
0.6	0.4	0.1	
0.7	0.4	0.1	
0.8	0.4	0.1	
0.9	0.4	0.1	
1	0.4	0.1	
0	0.5	0.1	
0.1	0.5	0.1	
0.2	0.5	0.1	
0.3	0.5	0.1	
0.4	0.5	0.1	
0.5	0.5	0.1	
0.6	0.5	0.1	
0.7	0.5	0.1	
0.8	0.5	0.1	
0.9	0.5	0.1	
1	0.5	0.1	
0	0.6	0.1	
0.1	0.6	0.1	
0.2	0.6	0.1	
0.3	0.6	0.1	
0.4	0.6	0.1	
0.5	0.6	0.1	
0.6	0.6	0.1	
0.7	0.6	0.1	
0.8	0.6	0.1	
0.9	0.6	0.1	
1	0.6	0.1	
0	0.7	0.1	
0.1	0.7	0.1	
0.2	0.7	0.1	
0.3	0.7	0.1	
0.4	0.7	0.1	
0.5	0.7	0.1	
0.6	0.7	0.1	
0.7	0.7	0.1	
0.8	0.7	0.1	
0.9	0.7	0.1	
1	0.7	0.1	
0	0.8	0.1	
0.1	0.8	0.1	
0.2	0.8	0.1	
0.3	0.8	0.1	
0.4	0.8	0.1	
0.5	0.8	0.1	
0.6	0.8	0.1	
0.7	0.8	0.1	
0.8	0.8	0.1	
0.9	0.8	0.1	
1	0.8	0.1	
0	0.9	0.1	
0.1	0.9	0.1	
0.2	0.9	0.1	
0.3	0.9	0.1	
0.4	0.9	0.1	
0.5	0.9	0.1	
0.6	0.9	0.1	
0.7	0.9	0.1	
0.8	0.9	0.1	
0.9	0.9	0.1	
1	0.9	0.1	
0	1	0.1	
0.1	1	0.1	
0.2	1	0.1	
0.3	1	0.1	
0.4	1	0.1	
0.5	1	0.1	
0.6	1	0.1	
0.7	1	0.1	
0.8	1	0.1	
0.9	1	0.1	
1	1	0.1	
0	1.1	0.1	
0.1	1.1	0.1	
0.2	1.1	0.1	
0.3	1.1	0.1	
0.4	1.1	0.1	
0.5	1.1	0.1	
0.6	1.1	0.1	
0.7	1.1	0.1	
0.8	1.1	0.1	
0.9	1.1	0.1	
1	1.1	0.1	
0	1.2	0.1	
0.1	1.2	0.1	
0.2	1.2	0.1	
0.3	1.2	0.1	
0.4	1.2	0.1	
0.5	1.2	0.1	
0.6	1.2	0.1	
0.7	1.2	0.1	
0.8	1.2	0.1	
0.9	1.2	0.1	
1	1.2	0.1	
0	1.3	0.1	
0.1	1.3	0.1	
0.2	1.3	0.1	
0.3	1.3	0.1	
0.4	1.3	0.1	
0.5	1.3	0.1	
0.6	1.3	0.1	
0.7	1.3	0.1	
0.8	1.3	0.1	
0.9	1.3	0.1	
1	1.3	0.1	
0	1.4	0.1	
0.1	1.4	0.1	
0.2	1.4	0.1	
0.3	1.4	0.1	
0.4	1.4	0.1	
0.5	1.4	0.1	
0.6	1.4	0.1	
0.7	1.4	0.1	
0.8	1.4	0.1	
0.9	1.4	0.1	
1	1.4	0.1	
0	1.5	0.1	
0.1	1.5	0.1	
0.2	1.5	0.1	
0.3	1.5	0.1	
0.4	1.5	0.1	
0.5	1.5	0.1	
0.6	1.5	0.1	
0.7	1.5	0.1	
0.8	1.5	0.1	
0.9	1.5	0.1	
1	1.5	0.1	
0	1.6	0.1	
0.1	1.6	0.1	
0.2	1.6	0.1	
0.3	1.6	0.1	
0.4	1.6	0.1	
0.5	1.6	0.1	
0.6	1.6	0.1	
0.7	1.6	0.1	
0.8	1.6	0.1	
0.9	1.6	0.1	
1	1.6	0.1	
0	1.7	0.1	
0.1	1.7	0.1	
0.2	1.7	0.1	
0.3	1.7	0.1	
0.4	1.7	0.1	
0.5	1.7	0.1	
0.6	1.7	0.1	
0.7	1.7	0.1	
0.8	1.7	0.1	
0.9	1.7	0.1	
1	1.7	0.1	
0	1.8	0.1	
0.1	1.8	0.1	
0.2	1.8	0.1	
0.3	1.8	0.1	
0.4	1.8	0.1	
0.5	1.8	0.1	
0.6	1.8	0.1	
0.7	1.8	0.1	
0.8	1.8	0.1	
0.9	1.8	0.1	
1	1.8	0.1	
0	1.9	0.1	
0.1	1.9	0.1	
0.2	1.9	0.1	
0.3	1.9	0.1	
0.4	1.9	0.1	
0.5	1.9	0.1	
0.6	1.9	0.1	
0.7	1.9	0.1	
0.8	1.9	0.1	
0.9	1.9	0.1	
1	1.9	0.1	
0	2	0.1	
0.1	2	0.1	
0.2	2	0.1	
0.3	2	0.1	
0.4	2	0.1	
0.5	2	0.1	
0.6	2	0.1	
0.7	2	0.1	
0.8	2	0.1	
0.9	2	0.1	
1	2	0.1	
0	2.1	0.1	
0.1	2.1	0.1	
0.2	2.1	0.1	
0.3	2.1	0.1	
0.4	2.1	0.1	
0.5	2.1	0.1	
0.6	2.1	0.1	
0.7	2.1	0.1	
0.8	2.1	0.1	
0.9	2.1	0.1	
1	2.1	0.1	
0	2.2	0.1	
0.1	2.2	0.1	
0.2	2.2	0.1	
0.3	2.2	0.1	
0.4	2.2	0.1	
0.5	2.2	0.1	
0.6	2.2	0.1	
0.7	2.2	0.1	
0.8	2.2	0.1	
0.9	2.2	0.1	
1	2.2	0.1	
0	2.3	0.1	
0.1	2.3	0.1	
0.2	2.3	0.1	
0.3	2.3	0.1	
0.4	2.3	0.1	
0.5	2.3	0.1	
0.6	2.3	0.1	
0.7	2.3	0.1	
0.8	2.3	0.1	
0.9	2.3	0.1	
1	2.3	0.1	
0	2.4	0.1	
0.1	2.4	0.1	
0.2	2.4	0.1	
0.3	2.4	0.1	
0.4	2.4	0.1	
0.5	2.4	0.1	
0.6	2.4	0.1	
0.7	2.4	0.1	
0.8	2.4	0.1	
0.9	2.4	0.1	
1	2.4	0.1	
0	2.5	0.1	
0.1	2.5	0.1	
0.2	2.5	0.1	
0.3	2.5	0.1	
0.4	2.5	0.1	
0.5	2.5	0.1	
0.6	2.5	0.1	
0.7	2.5	0.1	
0.8	2.5	0.1	
0.9	2.5	0.1	
1	2.5	0.1	
0	0	0.2	
0.1	0	0.2	
0.2	0	0.2	
0.3	0	0.2	
0.4	0	0.2	
0.5	0	0.2	
0.6	0	0.2	
0.7	0	0.2	
0.8	0	0.2	
0.9	0	0.2	
1	0	0.2	
0	0.1	0.2	
0.1	0.1	0.2	
0.2	0.1	0.2	
0.3	0.1	0.2	
0.4	0.1	0.2	
0.5	0.1	0.2	
0.6	0.1	0.2	
0.7	0.1	0.2	
0.8	0.1	0.2	
0.9	0.1	0.2	
1	0.1	0.2	
0	0.2	0.2	
0.1	0.2	0.2	
0.2	0.2	0.2	
0.3	0.2	0.2	
0.4	0.2	0.2	
0.5	0.2	0.2	
0.6	0.2	0.2	
0.7	0.2	0.2	
0.8	0.2	0.2	
0.9	0.2	0.2	
1	0.2	0.2	
0	0.3	0.2	
0.1	0.3	0.2	
0.2	0.3	0.2	
0.3	0.3	0.2	
0.4	0.3	0.2	
0.5	0.3	0.2	
0.6	0.3	0.2	
0.7	0.3	0.2	
0.8	0.3	0.2	
0.9	0.3	0.2	
1	0.3	0.2	
0	0.4	0.2	
0.1	0.4	0.2	
0.2	0.4	0.2	
0.3	0.4	0.2	
0.4	0.4	0.2	
0.5	0.4	0.2	
0.6	0.4	0.2	
0.7	0.4	0.2	
0.8	0.4	0.2	
0.9	0.4	0.2	
1	0.4	0.2	
0	0.5	0.2	
0.1	0.5	0.2	
0.2	0.5	0.2	
0.3	0.5	0.2	
0.4	0.5	0.2	
0.5	0.5	0.2	
0.6	0.5	0.2	
0.7	0.5	0.2	
0.8	0.5	0.2	
0.9	0.5	0.2	
1	0.5	0.2	
0	0.6	0.2	
0.1	0.6	0.2	
0.2	0.6	0.2	
0.3	0.6	0.2	
0.4	0.6	0.2	
0.5	0.6	0.2	
0.6	0.6	0.2	
0.7	0.6	0.2	
0.8	0.6	0.2	
0.9	0.6	0.2	
1	0.6	0.2	
0	0.7	0.2	
0.1	0.7	0.2	
0.2	0.7	0.2	
0.3	0.7	0.2	
0.4	0.7	0.2	
0.5	0.7	0.2	
0.6	0.7	0.2	
0.7	0.7	0.2	
0.8	0.7	0.2	
0.9	0.7	0.2	
1	0.7	0.2	
0	0.8	0.2	
0.1	0.8	0.2	
0.2	0.8	0.2	
0.3	0.8	0.2	
0.4	0.8	0.2	
0.5	0.8	0.2	
0.6	0.8	0.2	
0.7	0.8	0.2	
0.8	0.8	0.2	
0.9	0.8	0.2	
1	0.8	0.2	
0	0.9	0.2	
0.1	0.9	0.2	
0.2	0.9	0.2	
0.3	0.9	0.2	
0.4	0.9	0.2	
0.5	0.9	0.2	
0.6	0.9	0.2	
0.7	0.9	0.2	
0.8	0.9	0.2	
0.9	0.9	0.2	
1	0.9	0.2	
0	1	0.2	
0.1	1	0.2	
0.2	1	0.2	
0.3	1	0.2	
0.4	1	0.2	
0.5	1	0.2	
0.6	1	0.2	
0.7	1	0.2	
0.8	1	0.2	
0.9	1	0.2	
1	1	0.2	
0	1.1	0.2	
0.1	1.1	0.2	
0.2	1.1	0.2	
0.3	1.1	0.2	
0.4	1.1	0.2	
0.5	1.1	0.2	
0.6	1.1	0.2	
0.7	1.1	0.2	
0.8	1.1	0.2	
0.9	1.1	0.2	
1	1.1	0.2	
0	1.2	0.2	
0.1	1.2	0.2	
0.2	1.2	0.2	
0.3	1.2	0.2	
0.4	1.2	0.2	
0.5	1.2	0.2	
0.6	1.2	0.2	
0.7	1.2	0.2	
0.8	1.2	0.2	
0.9	1.2	0.2	
1	1.2	0.2	
0	1.3	0.2	
0.1	1.3	0.2	
0.2	1.3	0.2	
0.3	1.3	0.2	
0.4	1.3	0.2	
0.5	1.3	0.2	
0.6	1.3	0.2	
0.7	1.3	0.2	
0.8	1.3	0.2	
0.9	1.3	0.2	
1	1.3	0.2	
0	1.4	0.2	
0.1	1.4	0.2	
0.2	1.4	0.2	
0.3	1.4	0.2	
0.4	1.4	0.2	
0.5	1.4	0.2	
0.6	1.4	0.2	
0.7	1.4	0.2	
0.8	1.4	0.2	
0.9	1.4	0.2	
1	1.4	0.2	
0	1.5	0.2	
0.1	1.5	0.2	
0.2	1.5	0.2	
0.3	1.5	0.2	
0.4	1.5	0.2	
0.5	1.5	0.2	
0.6	1.5	0.2	
0.7	1.5	0.2	
0.8	1.5	0.2	
0.9	1.5	0.2	
1	1.5	0.2	
0	1.6	0.2	
0.1	1.6	0.2	
0.2	1.6	0.2	
0.3	1.6	0.2	
0.4	1.6	0.2	
0.5	1.6	0.2	
0.6	1.6	0.2	
0.7	1.6	0.2	
0.8	1.6	0.2	
0.9	1.6	0.2	
1	1.6	0.2	
0	1.7	0.2	
0.1	1.7	0.2	
0.2	1.7	0.2	
0.3	1.7	0.2	
0.4	1.7	0.2	
0.5	1.7	0.2	
0.6	1.7	0.2	
0.7	1.7	0.2	
0.8	1.7	0.2	
0.9	1.7	0.2	
1	1.7	0.2	
0	1.8	0.2	
0.1	1.8	0.2	
0.2	1.8	0.2	
0.3	1.8	0.2	
0.4	1.8	0.2	
0.5	1.8	0.2	
0.6	1.8	0.2	
0.7	1.8	0.2	
0.8	1.8	0.2	
0.9	1.8	0.2	
1	1.8	0.2	
0	1.9	0.2	
0.1	1.9	0.2	
0.2	1.9	0.2	
0.3	1.9	0.2	
0.4	1.9	0.2	
0.5	1.9	0.2	
0.6	1.9	0.2	
0.7	1.9	0.2	
0.8	1.9	0.2	
0.9	1.9	0.2	
1	1.9	0.2	
0	2	0.2	
0.1	2	0.2	
0.2	2	0.2	
0.3	2	0.2	
0.4	2	0.2	
0.5	2	0.2	
0.6	2	0.2	
0.7	2	0.2	
0.8	2	0.2	
0.9	2	0.2	
1	2	0.2	
0	2.1	0.2	
0.1	2.1	0.2	
0.2	2.1	0.2	
0.3	2.1	0.2	
0.4	2.1	0.2	
0.5	2.1	0.2	
0.6	2.1	0.2	
0.7	2.1	0.2	
0.8	2.1	0.2	
0.9	2.1	0.2	
1	2.1	0.2	
0	2.2	0.2	
0.1	2.2	0.2	
0.2	2.2	0.2	
0.3	2.2	0.2	
0.4	2.2	0.2	
0.5	2.2	0.2	
0.6	2.2	0.2	
0.7	2.2	0.2	
0.8	2.2	0.2	
0.9	2.2	0.2	
1	2.2	0.2	
0	2.3	0.2	
0.1	2.3	0.2	
0.2	2.3	0.2	
0.3	2.3	0.2	
0.4	2.3	0.2	
0.5	2.3	0.2	
0.6	2.3	0.2	
0.7	2.3	0.2	
0.8	2.3	0.2	
0.9	2.3	0.2	
1	2.3	0.2	
0	2.4	0.2	
0.1	2.4	0.2	
0.2	2.4	0.2	
0.3	2.4	0.2	
0.4	2.4	0.2	
0.5	2.4	0.2	
0.6	2.4	0.2	
0.7	2.4	0.2	
0.8	2.4	0.2	
[...]
CELL_DATA	12500
SCALARS Rho0 float
LOOKUP_TABLE default
0.168312
0.161931
0.158522
0.158329
0.157949
0.157707
0.15746
0.157215
0.156966
0.156716
0.156466
0.156218
0.155972
0.155729
0.15549
0.155255
0.155023
0.154796
0.154572
0.154352
0.154137
0.153924
0.153716
0.153512
0.153311
0.153114
0.152921
0.152731
0.152546
0.152364
0.152186
0.152012
0.151841
0.151675
0.151513
0.151356
0.151203
0.151055
0.150913
0.150777
0.150648
0.150527
0.150416
0.150316
2.23731e-08
1.29122e-08
7.67472e-09
4.16569e-09
1.93752e-09
5.29257e-10
6.12316e-10
0.159236
0.157646
0.157344
0.157073
0.15686
0.15665
0.156437
0.15622
0.156001
0.155782
0.155564
0.155349
0.155137
0.154928
0.154722
0.154521
0.154322
0.154128
0.153937
0.153749
0.153566
0.153386
0.153209
0.153036
0.152867
0.152701
0.152539
0.152381
0.152227
0.152077
0.151932
0.151791
0.151654
0.151524
0.151399
0.15128
0.151169
0.151065
0.150969
0.150881
0.150801
0.150724
0.150644
0.150553
0.150438
1.00789e-08
8.25481e-09
4.62938e-09
1.60711e-09
6.13865e-10
2.78376e-10
0.156398
0.156352
0.156202
0.156068
0.155913
0.155745
0.155568
0.155387
0.155203
0.155019
0.154836
0.154656
0.154478
0.154304
0.154132
0.153964
0.153799
0.153638
0.15348
0.153325
0.153174
0.153026
0.152882
0.152741
0.152605
0.152472
0.152343
0.152219
0.152099
0.151984
0.151874
0.15177
0.151672
0.151581
0.151497
0.15142
0.15135
0.151287
0.151228
0.151171
0.151108
0.15103
0.150923
0.150775
0.150581
6.58162e-09
5.3568e-09
2.10378e-09
3.84104e-10
2.4912e-10
2.88328e-10
0.155451
0.155412
0.155352
0.155256
0.155138
0.155005
0.154863
0.154716
0.154568
0.154419
0.154271
0.154125
0.153982
0.153841
0.153703
0.153567
0.153435
0.153306
0.15318
0.153057
0.152937
0.152822
0.152709
0.152601
0.152496
0.152396
0.1523
0.152209
0.152123
0.152042
0.151967
0.151897
0.151834
0.151778
0.151727
0.151682
0.151641
0.151601
0.151558
0.151504
0.151428
0.151317
0.151155
0.150932
0.150653
3.67927e-09
1.35676e-09
4.26529e-10
1.41631e-10
4.25714e-10
0.154679
0.154727
0.154729
0.154686
0.154615
0.154525
0.154422
0.154313
0.154199
0.154084
0.153968
0.153853
0.15374
0.153629
0.153519
0.153412
0.153308
0.153206
0.153107
0.153012
0.152919
0.152829
0.152743
0.15266
0.152581
0.152506
0.152435
0.152369
0.152307
0.15225
0.152198
0.152152
0.15211
0.152074
0.152043
0.152015
0.15199
0.151964
0.151932
0.151888
0.151821
0.151717
0.151557
0.151321
0.150999
4.48394e-09
1.58593e-09
4.9429e-10
2.25147e-10
4.76534e-10
0.154019
0.154141
0.154197
0.154201
0.154172
0.154121
0.154055
0.153981
0.1539
0.153817
0.153732
0.153647
0.153563
0.153479
0.153397
0.153316
0.153238
0.153161
0.153087
0.153016
0.152946
0.15288
0.152817
0.152756
0.152699
0.152645
0.152595
0.152548
0.152506
0.152467
0.152433
0.152403
0.152377
0.152355
0.152337
0.152322
0.152308
0.152292
0.152272
0.15224
0.152186
0.152095
0.151947
0.151713
0.151361
0.150874
1.91552e-09
5.05417e-10
2.69338e-10
4.29949e-10
3.12979e-10
0.153644
0.153748
0.153793
0.153802
0.153786
0.153754
0.153711
0.153662
0.153608
0.153551
0.153494
0.153435
0.153377
0.153319
0.153262
0.153207
0.153153
0.1531
0.153049
0.153
0.152954
0.152909
0.152867
0.152827
0.15279
0.152755
0.152724
0.152695
0.15267
0.152647
0.152628
0.152612
0.1526
0.15259
0.152582
0.152575
0.152567
0.152555
0.152534
0.152494
0.15242
0.15229
0.152066
0.151701
0.151146
2.07698e-09
4.56568e-10
1.48594e-10
2.38934e-10
2.92586e-10
0.153231
0.153375
0.153456
0.153498
0.153513
0.15351
0.153496
0.153473
0.153446
0.153414
0.15338
0.153345
0.153309
0.153273
0.153236
0.1532
0.153165
0.153131
0.153097
0.153065
0.153034
0.153004
0.152976
0.152949
0.152924
0.152901
0.15288
0.15286
0.152843
0.152828
0.152814
0.152803
0.152794
0.152786
0.15278
0.152775
0.15277
0.152762
0.152747
0.152716
0.152657
0.152542
0.152334
0.151975
0.151391
1.83012e-09
3.98888e-10
1.81524e-10
2.11947e-10
3.03576e-10
2.77135e-10
0.153074
0.153186
0.153255
0.153296
0.153318
0.153328
0.153328
0.153322
0.153312
0.153299
0.153283
0.153265
0.153247
0.153227
0.153207
0.153187
0.153167
0.153147
0.153128
0.153109
0.15309
0.153072
0.153055
0.153038
0.153022
0.153007
0.152992
0.152978
0.152965
0.152953
0.152941
0.15293
0.152919
0.152909
0.152899
0.152888
0.152875
0.152857
0.152827
0.15277
0.152662
0.152464
0.152124
0.151562
1.66624e-09
3.52248e-10
1.81133e-10
1.22855e-10
1.52369e-10
2.6619e-10
2.6201e-10
0.152979
0.15307
0.153132
0.153174
0.153202
0.153221
0.153232
0.153239
0.153241
0.153241
0.153238
0.153233
0.153226
0.153219
0.15321
0.153201
0.153191
0.153181
0.153171
0.15316
0.153149
0.153137
0.153125
0.153113
0.1531
0.153087
0.153073
0.153059
0.153043
0.153026
0.153008
0.152988
0.152967
0.152944
0.152919
0.15289
0.152855
0.152808
0.152736
0.152614
0.152406
0.152079
0.15158
1.63994e-09
3.1644e-10
1.7582e-10
1.13708e-10
1.19843e-10
1.6654e-10
2.68697e-10
2.5447e-10
0.152939
0.153016
0.153072
0.153114
0.153146
0.153171
0.153189
0.153203
0.153213
0.153221
0.153225
0.153228
0.153229
0.153229
0.153227
0.153224
0.15322
0.153215
0.153209
0.153202
0.153193
0.153184
0.153173
0.15316
0.153146
0.153129
0.153111
0.153089
0.153064
0.153036
0.153003
0.152967
0.152924
0.152876
0.152821
0.152755
0.152673
0.15256
0.152392
0.152135
0.151783
0.151332
1.61847e-09
2.94797e-10
1.76128e-10
1.10424e-10
1e-10
1.48902e-10
2.48223e-10
3.43956e-10
3.10487e-10
0.152947
0.153012
0.153062
0.153102
0.153134
0.15316
0.153181
0.153197
0.153211
0.153221
0.153229
0.153235
0.15324
0.153242
0.153243
0.153242
0.15324
0.153236
0.15323
0.153223
0.153214
0.153202
0.153189
0.153172
0.153152
0.153128
0.1531
0.153067
0.153028
0.152983
0.152929
0.152867
0.152794
0.152708
0.152604
0.152476
0.152306
0.152068
0.151727
0.151287
0.15092
1.73573e-09
2.85781e-10
1.7358e-10
1.03624e-10
1e-10
1.23529e-10
2.16149e-10
3.06748e-10
2.63267e-10
0.152924
0.152992
0.153045
0.153087
0.153121
0.153149
0.153172
0.153191
0.153206
0.153218
0.153228
0.153235
0.153241
0.153244
0.153246
0.153246
0.153244
0.15324
0.153235
0.153227
0.153217
0.153204
0.153189
0.15317
0.153148
0.15312
0.153088
0.153049
0.153003
0.152948
0.152884
0.152808
0.152718
0.15261
0.15248
0.152318
0.152106
0.151811
0.151393
0.150849
4.3035e-09
2.42701e-09
2.90044e-10
1.70714e-10
1.0041e-10
1e-10
1.35029e-10
3.07281e-10
2.3433e-10
0.15286
0.152946
0.15301
0.15306
0.1531
0.153131
0.153157
0.153177
0.153193
0.153206
0.153216
0.153224
0.153229
0.153232
0.153234
0.153234
0.153232
0.153228
0.153223
0.153216
0.153207
0.153195
0.153181
0.153165
0.153145
0.153121
0.153093
0.15306
0.15302
0.152974
0.152919
0.152855
0.152779
0.15269
0.152584
0.152455
0.152295
0.152086
0.151796
0.151384
0.150855
4.2902e-09
2.45994e-09
3.10315e-10
1.70496e-10
1.02143e-10
1e-10
1.14886e-10
2.48449e-10
0.152829
0.152937
0.153013
0.153069
0.153111
0.153142
0.153166
0.153183
0.153197
0.153206
0.153212
0.153216
0.153218
0.153217
0.153215
0.153212
0.153207
0.153201
0.153194
0.153185
0.153175
0.153163
0.153149
0.153134
0.153116
0.153096
0.153073
0.153047
0.153017
0.152982
0.152941
0.152895
0.152842
0.15278
0.152709
0.152626
0.152527
0.152404
0.152243
0.152016
0.151692
0.151284
0.150968
1.90061e-09
3.47252e-10
1.82218e-10
1.18638e-10
1.54505e-10
2.81131e-10
3.72612e-10
0.152976
0.153067
0.153128
0.153169
0.153197
0.153215
0.153226
0.153231
0.153233
0.153231
0.153226
0.15322
0.153212
0.153203
0.153192
0.153181
0.153169
0.153156
0.153142
0.153127
0.153112
0.153096
0.153079
0.153062
0.153043
0.153022
0.153
0.152977
0.152951
0.152923
0.152892
0.152858
0.152821
0.15278
0.152735
0.152683
0.152623
0.152549
0.152447
0.152293
0.152059
0.151743
0.151345
1.78421e-09
3.93288e-10
1.76969e-10
2.09633e-10
3.25221e-10
3.13627e-10
0.153072
0.153183
0.153251
0.153292
0.153313
0.153322
0.153321
0.153315
0.153303
0.153289
0.153272
0.153253
0.153232
0.153211
0.153189
0.153167
0.153144
0.153121
0.153099
0.153076
0.153053
0.153031
0.153009
0.152986
0.152964
0.152942
0.15292
0.152898
0.152876
0.152854
0.152832
0.15281
0.152788
0.152765
0.152743
0.15272
0.152695
0.152667
0.152629
0.152569
0.152464
0.152281
0.151992
0.151549
1.78538e-09
4.5034e-10
1.47174e-10
2.37675e-10
2.89239e-10
0.153228
0.153373
0.153453
0.153494
0.153508
0.153505
0.15349
0.153467
0.153438
0.153405
0.153371
0.153334
0.153296
0.153258
0.15322
0.153182
0.153144
0.153107
0.153071
0.153035
0.153001
0.152967
0.152934
0.152903
0.152872
0.152843
0.152815
0.152789
0.152764
0.152741
0.152719
0.1527
0.152682
0.152667
0.152654
0.152643
0.152634
0.152625
0.152614
0.152594
0.15255
0.152461
0.152289
0.151991
0.151491
1.74141e-09
5.00262e-10
2.73199e-10
4.3106e-10
3.27582e-10
0.153642
0.153746
0.15379
0.153798
0.153782
0.153749
0.153706
0.153656
0.153601
0.153544
0.153485
0.153425
0.153366
0.153307
0.153248
0.153191
0.153134
0.153079
0.153026
0.152974
0.152924
0.152875
0.152829
0.152785
0.152743
0.152703
0.152665
0.152631
0.152599
0.15257
0.152544
0.152522
0.152504
0.152489
0.152478
0.152471
0.152466
0.152462
0.152454
0.152434
0.152389
0.152294
0.152113
0.1518
0.151288
1.91172e-09
4.90537e-10
2.26495e-10
4.74796e-10
0.154018
0.154139
0.154195
0.154199
0.15417
0.154118
0.154052
0.153977
0.153896
0.153812
0.153727
0.153641
0.153556
0.153471
0.153387
0.153306
0.153225
0.153147
0.153071
0.152997
0.152926
0.152856
0.15279
0.152726
0.152665
0.152607
0.152552
0.152501
0.152453
0.152409
0.15237
0.152335
0.152304
0.152279
0.152258
0.152243
0.152231
0.152223
0.152214
0.152199
0.152171
0.152113
0.152003
0.151809
0.151492
0.151016
2.07487e-09
4.24217e-10
1.43078e-10
4.2721e-10
0.154679
0.154727
0.154729
0.154686
0.154615
0.154524
0.154421
0.154311
0.154197
0.154081
0.153965
0.15385
0.153736
0.153624
0.153514
0.153406
0.153301
0.153198
0.153098
0.153
0.152906
0.152814
0.152726
0.152641
0.152559
0.152481
0.152407
0.152336
0.152271
0.15221
0.152154
0.152103
0.152058
0.152019
0.151986
0.151959
0.151937
0.151919
0.1519
0.151875
0.151833
0.15176
0.151634
0.151431
0.151129
3.81931e-09
2.30679e-09
3.8592e-10
2.51293e-10
2.90279e-10
0.155451
0.155413
0.155353
0.155257
0.155139
0.155006
0.154864
0.154717
0.154568
0.154419
0.154271
0.154125
0.153982
0.15384
0.153702
0.153566
0.153433
0.153304
0.153177
0.153054
0.152933
0.152817
0.152703
0.152593
0.152487
0.152385
0.152287
0.152194
0.152105
0.152021
0.151943
0.151871
0.151805
0.151746
0.151694
0.151649
0.151611
0.151577
0.151544
0.151506
0.151452
0.151368
0.151234
0.151033
0.15076
4.50057e-09
1.88716e-09
6.33282e-10
2.81273e-10
0.156399
0.156354
0.156204
0.15607
0.155915
0.155747
0.155571
0.155389
0.155205
0.155021
0.154839
0.154659
0.154481
0.154307
0.154136
0.153968
0.153803
0.153642
0.153484
0.153329
0.153178
0.153031
0.152887
0.152746
0.15261
0.152477
0.152348
0.152223
0.152102
0.151986
0.151876
0.15177
0.15167
0.151577
0.151491
0.151412
0.151342
0.151279
0.151224
0.151173
0.151121
0.151058
0.15097
0.150841
0.150659
7.31864e-09
6.1568e-09
2.15757e-09
6.3708e-10
0.159238
0.157648
0.157346
0.157075
0.156863
0.156653
0.15644
0.156223
0.156005
0.155786
0.155569
0.155354
0.155142
0.154933
0.154728
0.154527
0.154329
0.154136
0.153945
0.153759
0.153576
0.153397
0.153221
0.153049
0.152881
0.152716
0.152556
0.152399
0.152246
0.152097
0.151953
0.151813
0.151677
0.151547
0.151422
0.151303
0.151191
0.151086
0.15099
0.150902
0.150822
0.150748
0.150675
0.150591
0.150484
1.1642e-08
9.09039e-09
5.34634e-09
1.82776e-09
0.168315
0.161934
0.158525
0.158332
0.157952
0.157711
0.157463
0.157218
0.15697
0.15672
0.156471
0.156223
0.155978
0.155736
0.155497
0.155262
0.155032
0.154805
0.154582
0.154363
0.154149
0.153938
0.153731
0.153528
0.153329
0.153134
0.152943
0.152755
0.152572
0.152393
0.152217
0.152046
0.151879
0.151715
0.151556
0.151402
0.151251
0.151106
0.150965
0.15083
0.1507
0.150578
0.150464
0.150358
2.45261e-08
1.41468e-08
8.63548e-09
4.96565e-09
2.35416e-09
6.35279e-10
0.165776
0.161527
0.159278
0.158837
0.158352
0.15797
0.157627
0.157318
0.157029
0.156755
0.15649
0.156232
0.15598
0.155734
0.155493
0.155256
0.155024
0.154795
0.154571
0.154351
0.154135
0.153923
0.153715
0.153511
0.15331
0.153113
0.15292
0.152731
0.152545
0.152363
0.152185
0.152011
0.151841
0.151674
0.151512
0.151354
0.151201
0.151052
0.150908
0.150771
0.15064
0.150517
0.150404
2.15901e-08
2.10636e-08
1.18741e-08
7.24501e-09
3.58297e-09
1.78485e-09
6.32162e-10
6.33046e-10
0.159037
0.158382
0.157825
0.157442
0.157094
0.156794
0.156522
0.156269
0.156028
0.155795
0.15557
0.155349
0.155134
0.154923
0.154717
0.154514
0.154316
0.154121
0.15393
0.153742
0.153558
0.153378
0.153201
0.153028
0.152859
0.152693
0.152531
0.152373
0.152219
0.152068
0.151922
0.151781
0.151644
0.151512
0.151386
0.151266
0.151152
0.151046
0.150947
0.150856
0.150773
0.150695
0.150618
0.150534
0.150433
9.88646e-09
7.87998e-09
4.29718e-09
1.6162e-09
5.38232e-10
2.40979e-10
0.157032
0.15679
0.156533
0.156276
0.156038
0.155815
0.155605
0.155403
0.155207
0.155016
0.154829
0.154646
0.154467
0.154291
0.154119
0.153951
0.153786
0.153624
0.153465
0.153311
0.153159
0.153011
0.152867
0.152726
0.152589
0.152456
0.152326
0.152202
0.152081
0.151965
0.151855
0.15175
0.15165
0.151557
0.151471
0.151391
0.151318
0.151252
0.151191
0.151132
0.15107
0.150995
0.150898
0.150766
0.150594
6.67473e-09
5.32755e-09
2.08645e-09
3.08811e-10
2.19907e-10
2.37802e-10
0.155838
0.155701
0.15553
0.15536
0.155194
0.155031
0.154871
0.154713
0.154558
0.154405
0.154255
0.154108
0.153963
0.153822
0.153683
0.153547
0.153415
0.153285
0.153159
0.153036
0.152916
0.1528
0.152687
0.152578
0.152473
0.152372
0.152276
0.152184
0.152096
0.152014
0.151938
0.151867
0.151802
0.151743
0.15169
0.151643
0.151599
0.151557
0.151513
0.151459
0.151388
0.151286
0.151142
0.150944
0.150695
4.13457e-09
1.88316e-09
3.38228e-10
1.58306e-10
3.26824e-10
0.155017
0.154974
0.154879
0.15477
0.154657
0.15454
0.154422
0.154303
0.154183
0.154065
0.153947
0.153831
0.153717
0.153604
0.153495
0.153387
0.153283
0.15318
0.153081
0.152985
0.152892
0.152802
0.152715
0.152632
0.152552
0.152477
0.152405
0.152338
0.152275
0.152217
0.152164
0.152116
0.152073
0.152035
0.152001
0.151971
0.151944
0.151916
0.151883
0.15184
0.151777
0.151683
0.151541
0.151337
0.151058
3.70482e-09
1.96438e-09
4.0497e-10
2.35686e-10
3.85904e-10
0.15431
0.154348
0.154319
0.154266
0.154201
0.154127
0.154048
0.153965
0.15388
0.153794
0.153707
0.15362
0.153535
0.153451
0.153368
0.153287
0.153208
0.153131
0.153057
0.152985
0.152915
0.152848
0.152784
0.152723
0.152666
0.152611
0.15256
0.152513
0.152469
0.15243
0.152394
0.152363
0.152336
0.152313
0.152293
0.152276
0.15226
0.152243
0.152222
0.152191
0.152142
0.152063
0.151938
0.151747
0.15146
0.151082
1.82657e-09
4.45657e-10
2.93839e-10
3.01094e-10
1.92571e-10
0.153814
0.153845
0.153841
0.153819
0.153784
0.153741
0.153691
0.153637
0.153581
0.153522
0.153463
0.153404
0.153345
0.153287
0.15323
0.153174
0.153119
0.153066
0.153015
0.152966
0.152919
0.152874
0.152831
0.152791
0.152753
0.152718
0.152686
0.152656
0.15263
0.152607
0.152587
0.15257
0.152556
0.152545
0.152536
0.152528
0.15252
0.152509
0.15249
0.152456
0.152398
0.152299
0.152139
0.151878
0.151494
1.90707e-09
4.33259e-10
2.67146e-10
2.36252e-10
2.24023e-10
0.153368
0.15345
0.15349
0.153506
0.153505
0.153492
0.153472
0.153446
0.153416
0.153383
0.153348
0.153312
0.153275
0.153238
0.153201
0.153165
0.153129
0.153094
0.153061
0.153028
0.152997
0.152967
0.152938
0.152911
0.152886
0.152862
0.15284
0.152821
0.152803
0.152787
0.152773
0.152761
0.152751
0.152743
0.152737
0.152732
0.152728
0.152722
0.152713
0.152694
0.152658
0.15259
0.152477
0.15228
0.15196
0.151616
3.95342e-10
2.10163e-10
2.29718e-10
3.22334e-10
3.68163e-10
0.15313
0.153208
0.153255
0.153283
0.153297
0.153302
0.153299
0.153291
0.153279
0.153264
0.153248
0.153229
0.15321
0.15319
0.15317
0.15315
0.153129
0.153109
0.15309
0.15307
0.153051
0.153033
0.153016
0.152999
0.152983
0.152967
0.152952
0.152938
0.152925
0.152912
0.1529
0.152889
0.152879
0.15287
0.152861
0.152854
0.152847
0.15284
0.152829
0.152809
0.152771
0.152711
0.152613
0.152429
0.152153
3.49898e-10
1.93836e-10
1.24513e-10
1.43577e-10
2.1547e-10
0.152646
0.15299
0.153064
0.153115
0.15315
0.153174
0.15319
0.1532
0.153205
0.153206
0.153204
0.153201
0.153195
0.153188
0.15318
0.153172
0.153162
0.153152
0.153142
0.153131
0.15312
0.153109
0.153098
0.153086
0.153073
0.153061
0.153048
0.153034
0.153019
0.153004
0.152987
0.15297
0.152951
0.152932
0.152913
0.152894
0.152875
0.152858
0.152842
0.152824
0.152802
0.152779
0.152781
0.15277
0.152562
3.20685e-10
1.88473e-10
1.29442e-10
1.58925e-10
2.16089e-10
2.1567e-10
0.152836
0.152928
0.152996
0.153047
0.153085
0.153115
0.153137
0.153154
0.153167
0.153176
0.153183
0.153187
0.15319
0.15319
0.15319
0.153188
0.153185
0.153181
0.153175
0.153169
0.153162
0.153154
0.153144
0.153133
0.153121
0.153107
0.153091
0.153072
0.153051
0.153027
0.153
0.15297
0.152936
0.152898
0.152858
0.152816
0.152773
0.152731
0.15269
0.152648
0.152608
0.152633
0.152684
0.152426
3.02071e-10
1.87008e-10
1.29441e-10
1.20083e-10
1.81874e-10
2.84514e-10
3.99747e-10
0.152848
0.152926
0.152986
0.153033
0.15307
0.1531
0.153125
0.153144
0.15316
0.153173
0.153183
0.153191
0.153196
0.1532
0.153202
0.153203
0.153202
0.1532
0.153196
0.153191
0.153184
0.153175
0.153163
0.15315
0.153134
0.153114
0.153091
0.153064
0.153032
0.152995
0.152951
0.152901
0.152844
0.15278
0.152708
0.152631
0.152547
0.152456
0.152351
0.152213
0.152069
0.152047
0.151732
2.93914e-10
1.82632e-10
1.18572e-10
1e-10
1.33562e-10
1.61448e-10
3.13513e-10
0.15282
0.152902
0.152965
0.153014
0.153055
0.153087
0.153114
0.153136
0.153154
0.153168
0.15318
0.153189
0.153196
0.153201
0.153205
0.153206
0.153206
0.153204
0.153201
0.153195
0.153188
0.153178
0.153166
0.153151
0.153133
0.153111
0.153084
0.153053
0.153015
0.152971
0.152919
0.152858
0.152787
0.152706
0.152614
0.152509
0.152392
0.152255
0.152081
0.151826
0.151398
0.151009
0.152123
2.99586e-10
1.83392e-10
1.21568e-10
1.05295e-10
1.62977e-10
2.76003e-10
3.6498e-10
0.152846
0.152924
0.152984
0.153031
0.153068
0.153098
0.153122
0.153141
0.153156
0.153169
0.153178
0.153185
0.15319
0.153193
0.153195
0.153194
0.153192
0.153189
0.153184
0.153177
0.153168
0.153157
0.153143
0.153127
0.153108
0.153085
0.153057
0.153025
0.152987
0.152942
0.15289
0.152829
0.152759
0.152679
0.152587
0.152484
0.152368
0.152234
0.152064
0.151812
0.151391
0.151014
0.152152
3.19811e-10
1.93053e-10
1.3269e-10
1.40661e-10
2.17861e-10
2.15761e-10
0.152834
0.152926
0.152993
0.153043
0.153081
0.15311
0.153132
0.153149
0.153161
0.153169
0.153175
0.153178
0.153179
0.153179
0.153177
0.153173
0.153168
0.153162
0.153155
0.153146
0.153136
0.153124
0.153111
0.153096
0.153079
0.153059
0.153036
0.153011
0.152981
0.152948
0.152909
0.152865
0.152815
0.152759
0.152696
0.152628
0.152554
0.152476
0.152391
0.152294
0.152167
0.15204
0.152044
0.15176
3.48971e-10
1.97789e-10
1.5576e-10
1.28531e-10
2.20049e-10
0.15288
0.152987
0.15306
0.153111
0.153145
0.153169
0.153184
0.153193
0.153197
0.153197
0.153195
0.15319
0.153183
0.153175
0.153165
0.153154
0.153143
0.15313
0.153117
0.153103
0.153089
0.153074
0.153058
0.153041
0.153024
0.153005
0.152985
0.152963
0.15294
0.152915
0.152888
0.152858
0.152826
0.152792
0.152756
0.152718
0.15268
0.152643
0.152608
0.152575
0.152544
0.152521
0.152569
0.152652
0.152413
3.89957e-10
2.01164e-10
1.98773e-10
2.65707e-10
2.83029e-10
0.153127
0.153204
0.153251
0.153279
0.153292
0.153296
0.153292
0.153283
0.153271
0.153255
0.153237
0.153217
0.153196
0.153174
0.153152
0.15313
0.153107
0.153084
0.153061
0.153038
0.153016
0.152993
0.152971
0.152949
0.152926
0.152905
0.152883
0.152861
0.152839
0.152817
0.152796
0.152774
0.152753
0.152733
0.152714
0.152697
0.152683
0.152672
0.152664
0.152657
0.152649
0.152647
0.152679
0.152708
0.152536
4.28864e-10
2.64082e-10
2.21402e-10
2.61923e-10
0.153366
0.153447
0.153487
0.153502
0.1535
0.153488
0.153466
0.15344
0.153408
0.153374
0.153338
0.153301
0.153262
0.153224
0.153185
0.153147
0.153109
0.153072
0.153035
0.152999
0.152964
0.152931
0.152898
0.152866
0.152835
0.152806
0.152778
0.152752
0.152727
0.152703
0.152682
0.152662
0.152645
0.15263
0.152618
0.152609
0.152603
0.152601
0.1526
0.152599
0.152592
0.152571
0.152535
0.152475
0.152346
0.152124
4.42526e-10
2.93304e-10
2.99228e-10
2.08674e-10
0.153813
0.153843
0.153839
0.153816
0.153781
0.153737
0.153686
0.153632
0.153574