# vtk DataFile Version 4.1
vtk output
ASCII
DATASET UNSTRUCTURED_GRID

POINTS	7401	float
0	0	0.0	
0	2.5	0.0	
0	5	0.0	
0	7.5	0.0	
0	10	0.0	
0	12.5	0.0	
0	15	0.0	
0	17.5	0.0	
0	20	0.0	
0	22.5	0.0	
0	25	0.0	
0	27.5	0.0	
0	30	0.0	
0	32.5	0.0	
0	35	0.0	
0	37.5	0.0	
0	40	0.0	
0	42.5	0.0	
0	45	0.0	
0	47.5	0.0	
0	50	0.0	
0	52.5	0.0	
0	55	0.0	
0	57.5	0.0	
0	60	0.0	
0	62.5	0.0	
0	65	0.0	
0	67.5	0.0	
0	70	0.0	
0	72.5	0.0	
0	75	0.0	
0	77.5	0.0	
0	80	0.0	
0	82.5	0.0	
0	85	0.0	
0	87.5	0.0	
0	90	0.0	
0	92.5	0.0	
0	95	0.0	
0	97.5	0.0	
0	100	0.0	
2.5	0	0.0	
2.5	2.5	0.0	
2.5	5	0.0	
2.5	7.5	0.0	
2.5	10	0.0	
2.5	12.5	0.0	
2.5	15	0.0	
2.5	17.5	0.0	
2.5	20	0.0	
2.5	22.5	0.0	
2.5	25	0.0	
2.5	27.5	0.0	
2.5	30	0.0	
2.5	32.5	0.0	
2.5	35	0.0	
2.5	37.5	0.0	
2.5	40	0.0	
2.5	42.5	0.0	
2.5	45	0.0	
2.5	47.5	0.0	
2.5	50	0.0	
2.5	52.5	0.0	
2.5	55	0.0	
2.5	57.5	0.0	
2.5	60	0.0	
2.5	62.5	0.0	
2.5	65	0.0	
2.5	67.5	0.0	
2.5	70	0.0	
2.5	72.5	0.0	
2.5	75	0.0	
2.5	77.5	0.0	
2.5	80	0.0	
2.5	82.5	0.0	
2.5	85	0.0	
2.5	87.5	0.0	
2.5	90	0.0	
2.5	92.5	0.0	
2.5	95	0.0	
2.5	97.5	0.0	
2.5	100	0.0	
5	0	0.0	
5	2.5	0.0	
5	5	0.0	
5	7.5	0.0	
5	10	0.0	
5	12.5	0.0	
5	15	0.0	
5	17.5	0.0	
5	20	0.0	
5	22.5	0.0	
5	25	0.0	
5	27.5	0.0	
5	30	0.0	
5	32.5	0.0	
5	35	0.0	
5	37.5	0.0	
5	40	0.0	
5	42.5	0.0	
5	45	0.0	
5	47.5	0.0	
5	50	0.0	
5	52.5	0.0	
5	55	0.0	
5	57.5	0.0	
5	60	0.0	
5	62.5	0.0	
5	65	0.0	
5	67.5	0.0	
5	70	0.0	
5	72.5	0.0	
5	75	0.0	
5	77.5	0.0	
5	80	0.0	
5	82.5	0.0	
5	85	0.0	
5	87.5	0.0	
5	90	0.0	
5	92.5	0.0	
5	95	0.0	
5	97.5	0.0	
5	100	0.0	
7.5	0	0.0	
7.5	2.5	0.0	
7.5	5	0.0	
7.5	7.5	0.0	
7.5	10	0.0	
7.5	12.5	0.0	
7.5	15	0.0	
7.5	17.5	0.0	
7.5	20	0.0	
7.5	22.5	0.0	
7.5	25	0.0	
7.5	27.5	0.0	
7.5	30	0.0	
7.5	32.5	0.0	
7.5	35	0.0	
7.5	37.5	0.0	
7.5	40	0.0	
7.5	42.5	0.0	
7.5	45	0.0	
7.5	47.5	0.0	
7.5	50	0.0	
7.5	52.5	0.0	
7.5	55	0.0	
7.5	57.5	0.0	
7.5	60	0.0	
7.5	62.5	0.0	
7.5	65	0.0	
7.5	67.5	0.0	
7.5	70	0.0	
7.5	72.5	0.0	
7.5	75	0.0	
7.5	77.5	0.0	
7.5	80	0.0	
7.5	82.5	0.0	
7.5	85	0.0	
7.5	87.5	0.0	
7.5	90	0.0	
7.5	92.5	0.0	
7.5	95	0.0	
7.5	97.5	0.0	
7.5	100	0.0	
10	0	0.0	
10	2.5	0.0	
10	5	0.0	
10	7.5	0.0	
10	10	0.0	
10	12.5	0.0	
10	15	0.0	
10	17.5	0.0	
10	20	0.0	
10	22.5	0.0	
10	25	0.0	
10	27.5	0.0	
10	30	0.0	
10	32.5	0.0	
10	35	0.0	
10	37.5	0.0	
10	40	0.0	
10	42.5	0.0	
10	45	0.0	
10	47.5	0.0	
10	50	0.0	
10	52.5	0.0	
10	55	0.0	
10	57.5	0.0	
10	60	0.0	
10	62.5	0.0	
10	65	0.0	
10	67.5	0.0	
10	70	0.0	
10	72.5	0.0	
10	75	0.0	
10	77.5	0.0	
10	80	0.0	
10	82.5	0.0	
10	85	0.0	
10	87.5	0.0	
10	90	0.0	
10	92.5	0.0	
10	95	0.0	
10	97.5	0.0	
10	100	0.0	
12.5	0	0.0	
12.5	2.5	0.0	
12.5	5	0.0	
12.5	7.5	0.0	
12.5	10	0.0	
12.5	12.5	0.0	
12.5	15	0.0	
12.5	17.5	0.0	
12.5	20	0.0	
12.5	22.5	0.0	
12.5	25	0.0	
12.5	27.5	0.0	
12.5	30	0.0	
12.5	32.5	0.0	
12.5	35	0.0	
12.5	37.5	0.0	
12.5	40	0.0	
12.5	42.5	0.0	
12.5	45	0.0	
12.5	47.5	0.0	
12.5	50	0.0	
12.5	52.5	0.0	
12.5	55	0.0	
12.5	57.5	0.0	
12.5	60	0.0	
12.5	62.5	0.0	
12.5	65	0.0	
12.5	67.5	0.0	
12.5	70	0.0	
12.5	72.5	0.0	
12.5	75	0.0	
12.5	77.5	0.0	
12.5	80	0.0	
12.5	82.5	0.0	
12.5	85	0.0	
12.5	87.5	0.0	
12.5	90	0.0	
12.5	92.5	0.0	
12.5	95	0.0	
12.5	97.5	0.0	
12.5	100	0.0	
15	0	0.0	
15	2.5	0.0	
15	5	0.0	
15	7.5	0.0	
15	10	0.0	
15	12.5	0.0	
15	15	0.0	
15	17.5	0.0	
15	20	0.0	
15	22.5	0.0	
15	25	0.0	
15	27.5	0.0	
15	30	0.0	
15	32.5	0.0	
15	35	0.0	
15	37.5	0.0	
15	40	0.0	
15	42.5	0.0	
15	45	0.0	
15	47.5	0.0	
15	50	0.0	
15	52.5	0.0	
15	55	0.0	
15	57.5	0.0	
15	60	0.0	
15	62.5	0.0	
15	65	0.0	
15	67.5	0.0	
15	70	0.0	
15	72.5	0.0	
15	75	0.0	
15	77.5	0.0	
15	80	0.0	
15	82.5	0.0	
15	85	0.0	
15	87.5	0.0	
15	90	0.0	
15	92.5	0.0	
15	95	0.0	
15	97.5	0.0	
15	100	0.0	
17.5	0	0.0	
17.5	2.5	0.0	
17.5	5	0.0	
17.5	7.5	0.0	
17.5	10	0.0	
17.5	12.5	0.0	
17.5	15	0.0	
17.5	17.5	0.0	
17.5	20	0.0	
17.5	22.5	0.0	
17.5	25	0.0	
17.5	27.5	0.0	
17.5	30	0.0	
17.5	32.5	0.0	
17.5	35	0.0	
17.5	37.5	0.0	
17.5	40	0.0	
17.5	42.5	0.0	
17.5	45	0.0	
17.5	47.5	0.0	
17.5	50	0.0	
17.5	52.5	0.0	
17.5	55	0.0	
17.5	57.5	0.0	
17.5	60	0.0	
17.5	62.5	0.0	
17.5	65	0.0	
17.5	67.5	0.0	
17.5	70	0.0	
17.5	72.5	0.0	
17.5	75	0.0	
17.5	77.5	0.0	
17.5	80	0.0	
17.5	82.5	0.0	
17.5	85	0.0	
17.5	87.5	0.0	
17.5	90	0.0	
17.5	92.5	0.0	
17.5	95	0.0	
17.5	97.5	0.0	
17.5	100	0.0	
20	0	0.0	
20	2.5	0.0	
20	5	0.0	
20	7.5	0.0	
20	10	0.0	
20	12.5	0.0	
20	15	0.0	
20	17.5	0.0	
20	20	0.0	
20	22.5	0.0	
20	25	0.0	
20	27.5	0.0	
20	30	0.0	
20	32.5	0.0	
20	35	0.0	
20	37.5	0.0	
20	40	0.0	
20	42.5	0.0	
20	45	0.0	
20	47.5	0.0	
20	50	0.0	
20	52.5	0.0	
20	55	0.0	
20	57.5	0.0	
20	60	0.0	
20	62.5	0.0	
20	65	0.0	
20	67.5	0.0	
20	70	0.0	
20	72.5	0.0	
20	75	0.0	
20	77.5	0.0	
20	80	0.0	
20	82.5	0.0	
20	85	0.0	
20	87.5	0.0	
20	90	0.0	
20	92.5	0.0	
20	95	0.0	
20	97.5	0.0	
20	100	0.0	
22.5	0	0.0	
22.5	2.5	0.0	
22.5	5	0.0	
22.5	7.5	0.0	
22.5	10	0.0	
22.5	12.5	0.0	
22.5	15	0.0	
22.5	17.5	0.0	
22.5	20	0.0	
22.5	22.5	0.0	
22.5	25	0.0	
22.5	27.5	0.0	
22.5	30	0.0	
22.5	32.5	0.0	
22.5	35	0.0	
22.5	37.5	0.0	
22.5	40	0.0	
22.5	42.5	0.0	
22.5	45	0.0	
22.5	47.5	0.0	
22.5	50	0.0	
22.5	52.5	0.0	
22.5	55	0.0	
22.5	57.5	0.0	
22.5	60	0.0	
22.5	62.5	0.0	
22.5	65	0.0	
22.5	67.5	0.0	
22.5	70	0.0	
22.5	72.5	0.0	
22.5	75	0.0	
22.5	77.5	0.0	
22.5	80	0.0	
22.5	82.5	0.0	
22.5	85	0.0	
22.5	87.5	0.0	
22.5	90	0.0	
22.5	92.5	0.0	
22.5	95	0.0	
22.5	97.5	0.0	
22.5	100	0.0	
25	0	0.0	
25	2.5	0.0	
25	5	0.0	
25	7.5	0.0	
25	10	0.0	
25	12.5	0.0	
25	15	0.0	
25	17.5	0.0	
25	20	0.0	
25	22.5	0.0	
25	25	0.0	
25	27.5	0.0	
25	30	0.0	
25	32.5	0.0	
25	35	0.0	
25	37.5	0.0	
25	40	0.0	
25	42.5	0.0	
25	45	0.0	
25	47.5	0.0	
25	50	0.0	
25	52.5	0.0	
25	55	0.0	
25	57.5	0.0	
25	60	0.0	
25	62.5	0.0	
25	65	0.0	
25	67.5	0.0	
25	70	0.0	
25	72.5	0.0	
25	75	0.0	
25	77.5	0.0	
25	80	0.0	
25	82.5	0.0	
25	85	0.0	
25	87.5	0.0	
25	90	0.0	
25	92.5	0.0	
25	95	0.0	
25	97.5	0.0	
25	100	0.0	
27.5	0	0.0	
27.5	2.5	0.0	
27.5	5	0.0	
27.5	7.5	0.0	
27.5	10	0.0	
27.5	12.5	0.0	
27.5	15	0.0	
27.5	17.5	0.0	
27.5	20	0.0	
27.5	22.5	0.0	
27.5	25	0.0	
27.5	27.5	0.0	
27.5	30	0.0	
27.5	32.5	0.0	
27.5	35	0.0	
27.5	37.5	0.0	
27.5	40	0.0	
27.5	42.5	0.0	
27.5	45	0.0	
27.5	47.5	0.0	
27.5	50	0.0	
27.5	52.5	0.0	
27.5	55	0.0	
27.5	57.5	0.0	
27.5	60	0.0	
27.5	62.5	0.0	
27.5	65	0.0	
27.5	67.5	0.0	
27.5	70	0.0	
27.5	72.5	0.0	
27.5	75	0.0	
27.5	77.5	0.0	
27.5	80	0.0	
27.5	82.5	0.0	
27.5	85	0.0	
27.5	87.5	0.0	
27.5	90	0.0	
27.5	92.5	0.0	
27.5	95	0.0	
27.5	97.5	0.0	
27.5	100	0.0	
30	0	0.0	
30	2.5	0.0	
30	5	0.0	
30	7.5	0.0	
30	10	0.0	
30	12.5	0.0	
30	15	0.0	
30	17.5	0.0	
30	20	0.0	
30	22.5	0.0	
30	25	0.0	
30	27.5	0.0	
30	30	0.0	
30	32.5	0.0	
30	35	0.0	
30	37.5	0.0	
30	40	0.0	
30	42.5	0.0	
30	45	0.0	
30	47.5	0.0	
30	50	0.0	
30	52.5	0.0	
30	55	0.0	
30	57.5	0.0	
30	60	0.0	
30	62.5	0.0	
30	65	0.0	
30	67.5	0.0	
30	70	0.0	
30	72.5	0.0	
30	75	0.0	
30	77.5	0.0	
30	80	0.0	
30	82.5	0.0	
30	85	0.0	
30	87.5	0.0	
30	90	0.0	
30	92.5	0.0	
30	95	0.0	
30	97.5	0.0	
30	100	0.0	
32.5	0	0.0	
32.5	2.5	0.0	
32.5	5	0.0	
32.5	7.5	0.0	
32.5	10	0.0	
32.5	12.5	0.0	
32.5	15	0.0	
32.5	17.5	0.0	
32.5	20	0.0	
32.5	22.5	0.0	
32.5	25	0.0	
32.5	27.5	0.0	
32.5	30	0.0	
32.5	32.5	0.0	
32.5	35	0.0	
32.5	37.5	0.0	
32.5	40	0.0	
32.5	42.5	0.0	
32.5	45	0.0	
32.5	47.5	0.0	
32.5	50	0.0	
32.5	52.5	0.0	
32.5	55	0.0	
32.5	57.5	0.0	
32.5	60	0.0	
32.5	62.5	0.0	
32.5	65	0.0	
32.5	67.5	0.0	
32.5	70	0.0	
32.5	72.5	0.0	
32.5	75	0.0	
32.5	77.5	0.0	
32.5	80	0.0	
32.5	82.5	0.0	
32.5	85	0.0	
32.5	87.5	0.0	
32.5	90	0.0	
32.5	92.5	0.0	
32.5	95	0.0	
32.5	97.5	0.0	
32.5	100	0.0	
35	0	0.0	
35	2.5	0.0	
35	5	0.0	
35	7.5	0.0	
35	10	0.0	
35	12.5	0.0	
35	15	0.0	
35	17.5	0.0	
35	20	0.0	
35	22.5	0.0	
35	25	0.0	
35	27.5	0.0	
35	30	0.0	
35	32.5	0.0	
35	35	0.0	
35	37.5	0.0	
35	40	0.0	
35	42.5	0.0	
35	45	0.0	
35	47.5	0.0	
35	50	0.0	
35	52.5	0.0	
35	55	0.0	
35	57.5	0.0	
35	60	0.0	
35	62.5	0.0	
35	65	0.0	
35	67.5	0.0	
35	70	0.0	
35	72.5	0.0	
35	75	0.0	
35	77.5	0.0	
35	80	0.0	
35	82.5	0.0	
35	85	0.0	
35	87.5	0.0	
35	90	0.0	
35	92.5	0.0	
35	95	0.0	
35	97.5	0.0	
35	100	0.0	
37.5	0	0.0	
37.5	2.5	0.0	
37.5	5	0.0	
37.5	7.5	0.0	
37.5	10	0.0	
37.5	12.5	0.0	
37.5	15	0.0	
37.5	17.5	0.0	
37.5	20	0.0	
37.5	22.5	0.0	
37.5	25	0.0	
37.5	27.5	0.0	
37.5	30	0.0	
37.5	32.5	0.0	
37.5	35	0.0	
37.5	37.5	0.0	
37.5	40	0.0	
37.5	42.5	0.0	
37.5	45	0.0	
37.5	47.5	0.0	
37.5	50	0.0	
37.5	52.5	0.0	
37.5	55	0.0	
37.5	57.5	0.0	
37.5	60	0.0	
37.5	62.5	0.0	
37.5	65	0.0	
37.5	67.5	0.0	
37.5	70	0.0	
37.5	72.5	0.0	
37.5	75	0.0	
37.5	77.5	0.0	
37.5	80	0.0	
37.5	82.5	0.0	
37.5	85	0.0	
37.5	87.5	0.0	
37.5	90	0.0	
37.5	92.5	0.0	
37.5	95	0.0	
37.5	97.5	0.0	
37.5	100	0.0	
40	0	0.0	
40	2.5	0.0	
40	5	0.0	
40	7.5	0.0	
40	10	0.0	
40	12.5	0.0	
40	15	0.0	
40	17.5	0.0	
40	20	0.0	
40	22.5	0.0	
40	25	0.0	
40	27.5	0.0	
40	30	0.0	
40	32.5	0.0	
40	35	0.0	
40	37.5	0.0	
40	40	0.0	
40	42.5	0.0	
40	45	0.0	
40	47.5	0.0	
40	50	0.0	
40	52.5	0.0	
40	55	0.0	
40	57.5	0.0	
40	60	0.0	
40	62.5	0.0	
40	65	0.0	
40	67.5	0.0	
40	70	0.0	
40	72.5	0.0	
40	75	0.0	
40	77.5	0.0	
40	80	0.0	
40	82.5	0.0	
40	85	0.0	
40	87.5	0.0	
40	90	0.0	
40	92.5	0.0	
40	95	0.0	
40	97.5	0.0	
40	100	0.0	
42.5	0	0.0	
42.5	2.5	0.0	
42.5	5	0.0	
42.5	7.5	0.0	
42.5	10	0.0	
42.5	12.5	0.0	
42.5	15	0.0	
42.5	17.5	0.0	
42.5	20	0.0	
42.5	22.5	0.0	
42.5	25	0.0	
42.5	27.5	0.0	
42.5	30	0.0	
42.5	32.5	0.0	
42.5	35	0.0	
42.5	37.5	0.0	
42.5	40	0.0	
42.5	42.5	0.0	
42.5	45	0.0	
42.5	47.5	0.0	
42.5	50	0.0	
42.5	52.5	0.0	
42.5	55	0.0	
42.5	57.5	0.0	
42.5	60	0.0	
42.5	62.5	0.0	
42.5	65	0.0	
42.5	67.5	0.0	
42.5	70	0.0	
42.5	72.5	0.0	
42.5	75	0.0	
42.5	77.5	0.0	
42.5	80	0.0	
42.5	82.5	0.0	
42.5	85	0.0	
42.5	87.5	0.0	
42.5	90	0.0	
42.5	92.5	0.0	
42.5	95	0.0	
42.5	97.5	0.0	
42.5	100	0.0	
45	0	0.0	
45	2.5	0.0	
45	5	0.0	
45	7.5	0.0	
45	10	0.0	
45	12.5	0.0	
45	15	0.0	
45	17.5	0.0	
45	20	0.0	
45	22.5	0.0	
45	25	0.0	
45	27.5	0.0	
45	30	0.0	
45	32.5	0.0	
45	35	0.0	
45	37.5	0.0	
45	40	0.0	
45	42.5	0.0	
45	45	0.0	
45	47.5	0.0	
45	50	0.0	
45	52.5	0.0	
45	55	0.0	
45	57.5	0.0	
45	60	0.0	
45	62.5	0.0	
45	65	0.0	
45	67.5	0.0	
45	70	0.0	
45	72.5	0.0	
45	75	0.0	
45	77.5	0.0	
45	80	0.0	
45	82.5	0.0	
45	85	0.0	
45	87.5	0.0	
45	90	0.0	
45	92.5	0.0	
45	95	0.0	
45	97.5	0.0	
45	100	0.0	
47.5	0	0.0	
47.5	2.5	0.0	
47.5	5	0.0	
47.5	7.5	0.0	
47.5	10	0.0	
[...]
CELL_DATA	2400
SCALARS Rho0 float
LOOKUP_TABLE default
1
1
1
1
1
1
1
1
1
1
1
1
1
0.241496
0.159814
0.0922545
0.0630983
0.00811884
1.95296e-05
2.79318e-10
2.79318e-10
1.95296e-05
0.00811884
0.0630983
0.0922545
0.159814
0.241496
1
1
1
1
1
1
1
1
1
1
1
1
1
1
1
1
1
1
1
1
1
1
1
1
1
1
0.423651
0.311351
0.192081
0.0507512
0.00873778
8.09971e-05
3.00526e-07
3.00526e-07
8.09971e-05
0.00873778
0.0507512
0.192081
0.311351
0.423651
1
1
1
1
1
1
1
1
1
1
1
1
1
1
1
1
1
1
1
1
1
1
1
1
1
1
0.628174
0.471883
0.298123
0.169693
0.0421398
0.0064838
0.000290438
0.000290438
0.0064838
0.0421398
0.169693
0.298123
0.471883
0.628174
1
1
1
1
1
1
1
1
1
1
1
1
1
1
1
1
1
1
1
1
1
1
1
1
1
1
0.731321
0.429338
0.342984
0.128311
0.0936117
0.0417895
0.013352
0.013352
0.0417895
0.0936117
0.128311
0.342984
0.429338
0.731321
1
1
1
1
1
1
1
1
1
1
1
1
1
1
1
1
1
1
1
1
1
1
1
1
1
1
1
0.740004
0.470967
0.271131
0.170346
0.0464894
0.0758211
0.0758211
0.0464894
0.170346
0.271131
0.470967
0.740004
1
1
1
1
1
1
1
1
1
1
1
1
1
1
1
1
1
1
1
1
1
1
1
1
1
1
1
1
0.935989
0.558394
0.608826
0.442608
0.303663
0.186585
0.186585
0.303663
0.442608
0.608826
0.558394
0.935989
1
1
1
1
1
1
1
1
1
1
1
1
1
1
1
1
1
1
1
1
1
1
1
1
1
1
1
1
1
0.741847
0.731036
0.624575
0.473505
0.233916
0.233916
0.473505
0.624575
0.731036
0.741847
1
1
1
1
1
1
1
1
1
1
1
1
1
1
1
1
1
1
1
1
1
1
1
1
1
1
1
1
1
1
0.930275
0.847937
0.764917
0.621341
0.284331
0.284331
0.621341
0.764917
0.847937
0.930275
1
1
1
1
1
1
1
1
1
1
1
1
1
1
1
1
1
1
1
1
1
1
1
1
1
1
1
1
1
1
1
0.993481
0.7
0.601055
0.475221
0.475221
0.601055
0.7
0.993481
1
1
1
1
1
1
1
1
1
1
1
1
1
1
1
1
1
1
1
1
1
1
1
1
1
1
1
1
1
1
1
1
1
0.813186
0.699185
0.634083
0.634083
0.699185
0.813186
1
1
1
1
1
1
1
1
1
1
1
1
1
1
1
1
1
1
1
1
1
1
1
1
1
1
1
1
1
1
1
1
1
1
0.85
0.9199
0.8694
0.8694
0.9199
0.85
1
1
1
1
1
1
1
1
1
1
1
1
1
1
1
1
1
1
1
1
1
1
1
1
1
1
1
1
1
1
1
1
1
1
1
0.966895
0.990124
0.990124
0.966895
1
1
1
1
1
1
1
1
1
1
1
1
1
1
1
1
1
1
1
1
1
1
1
1
1
1
1
1
1
1
1
1
1
1
1
1
1
1
1
1
1
1
1
1
1
1
1
1
1
1
1
1
1
1
1
1
1
1
1
1
1
1
1
1
1
1
1
1
1
1
1
1
1
1
1
1
1
1
1
1
1
1
1
1
1
1
1
1
1
1
1
1
1
1
1
1
1
1
1
1
1
1
1
1
1
1
1
1
1
1
1
1
1
1
1
1
1
1
1
1
1
1
1
1
1
1
1
1
1
1
1
1
1
1
1
1
1
1
1
1
1
1
1
1
1
1
1
1
1
1
1
1
1
1
1
1
1
1
1
1
1
1
1
1
1
1
1
1
1
1
1
1
1
1
1
1
1
1
1
1
1
1
1
1
1
1
1
1
1
1
1
1
1
1
1
1
1
1
1
1
1
1
1
1
1
1
1
1
1
1
1
1
1
1
1
1
1
1
1
1
1
1
1
1
1
1
1
1
1
1
1
1
1
1
1
1
1
1
1
1
1
1
1
1
1
1
1
1
1
1
1
1
1
1
1
1
1
1
1
1
1
1
1
1
1
1
1
1
1
1
1
1
1
1
1
1
1
1
1
1
1
1
1
1
1
1
1
1
1
1
1
1
1
1
1
1
1
1
1
1
1
1
1
1
1
1
1
1
1
1
1
1
1
1
1
1
1
1
1
1
1
1
1
1
1
1
1
1
1
1
1
1
1
1
1
1
1
1
1
1
1
1
1
1
1
1
1
1
1
1
1
1
1
1
1
1
1
1
1
1
1
1
1
1
1
1
1
1
1
1
1
1
1
1
1
1
1
1
1
1
1
1
1
1
1
1
1
1
1
1
1
1
1
1
1
1
1
1
1
1
1
1
1
1
1
1
1
1
1
1
1
1
1
1
1
1
1
1
1
1
1
1
1
1
1
1
1
1
1
1
1
1
1
1
1
1
1
1
1
1
1
1
1
1
1
1
1
1
1
1
1
1
1
1
1
1
1
1
1
1
1
1
1
1
1
1
1
1
1
1
1
1
1
1
1
0.869118
1
1
1
1
0.869118
1
1
1
1
1
1
1
1
1
1
1
1
1
1
1
1
1
1
1
1
1
1
1
1
1
1
1
1
1
1
1
1
1
1
0.871831
1
1
1
1
0.871831
1
1
1
1
1
1
1
1
1
1
1
1
1
1
1
1
1
1
1
1
1
1
1
1
1
1
1
1
0.914328
0.828758
1
1
1
0.961627
0.975717
1
1
1
1
0.975717
0.961627
1
1
1
0.828758
0.914328
1
1
1
1
1
1
1
1
1
1
1
1
1
1
1
1
1
1
1
1
1
1
0.786078
0.828104
1
1
0.85
0.85
0.989412
1
1
1
1
0.989412
0.85
0.85
1
1
0.828104
0.786078
1
1
1
1
1
1
1
1
1
1
1
1
1
1
1
1
1
1
1
1
1
1
0.857638
1
1
1
0.85
0.85
1
1
1
1
1
1
0.85
0.85
1
1
1
0.857638
1
1
1
1
1
1
1
1
1
1
1
1
1
1
1
1
1
1
1
1
1
1
0.783479
1
1
0.92314
0.85
0.996806
1
1
1
1
1
1
0.996806
0.85
0.92314
1
1
0.783479
1
1
1
1
1
1
1
1
1
1
1
1
1
1
1
1
1
1
1
1
1
1
0.828979
0.971037
0.844577
0.85
0.85
1
1
1
0.883603
0.883603
1
1
1
0.85
0.85
0.844577
0.971037
0.828979
1
1
1
1
1
1
1
1
1
1
1
1
1
1
1
1
1
1
1
1
1
1
0.943076
0.945543
0.85
0.85
0.85
1
1
1
0.85
0.85
1
1
1
0.85
0.85
0.85
0.945543
0.943076
1
1
1
1
1
1
1
1
1
1
1
1
1
1
1
1
1
1
1
1
1
1
0.971255
0.998897
0.85
0.85
1
1
1
1
0.85
0.85
1
1
1
1
0.85
0.85
0.998897
0.971255
1
1
1
1
1
1
1
1
1
1
1
1
1
1
1
1
1
1
1
1
1
1
0.998454
0.826931
0.85
0.844864
1
1
1
1
0.85
0.85
1
1
1
1
0.844864
0.85
0.826931
0.998454
1
1
1
1
1
1
1
1
1
1
1
1
1
1
1
1
1
1
1
1
1
1
0.979497
0.810327
0.85
0.80444
1
1
1
1
0.85
0.85
1
1
1
1
0.80444
0.85
0.810327
0.979497
1
1
1
1
1
1
1
1
1
1
1
1
1
1
1
1
1
1
1
1
1
1
0.97083
0.800869
0.829077
0.85
1
1
1
1
0.85
0.85
1
1
1
1
0.85
0.829077
0.800869
0.97083
1
1
1
1
1
1
1
1
1
1
1
1
1
1
1
1
1
1
1
1
1
1
0.962589
0.789704
0.803039
1
1
1
1
0.983966
0.85
0.85
0.983966
1
1
1
1
0.803039
0.789704
0.962589
1
1
1
1
1
1
1
1
1
1
1
1
1
1
1
1
1
1
1
1
1
1
0.965669
0.793335
0.826409
1
1
1
0.987451
0.842221
0.832309
0.832309
0.842221
0.987451
1
1
1
0.826409
0.793335
0.965669
1
1
1
1
1
1
1
1
1
1
1
1
1
1
1
1
1
1
1
1
1
1
0.969915
0.841782
0.804956
1
1
0.990057
1
0.83127
0.77235
0.77235
0.83127
1
0.990057
1
1
0.804956
0.841782
0.969915
1
1
1
1
1
1
1
1
1
1
1
1
1
1
1
1
1
1
1
1
1
1
0.998411
0.829171
0.957475
1
0.989294
0.977699
0.9299
0.927451
0.930644
0.930644
0.927451
0.9299
0.977699
0.989294
1
0.957475
0.829171
0.998411
1
1
1
1
1
1
1
1
1
1
1
0.742948
1
1
1
1
1
1
1
1
1
1
0.897497
0.823687
0.912712
0.960786
0.936622
0.9226
0.89955
0.903691
0.922225
0.922225
0.903691
0.89955
0.9226
0.936622
0.960786
0.912712
0.823687
0.897497
1
1
1
1
1
1
1
1
1
1
0.742948
0.350932
1
1
1
1
1
1
1
1
1
1
0.749773
0.82066
0.906716
0.909819
0.892792
0.881735
0.891969
0.877894
0.862519
0.862519
0.877894
0.891969
0.881735
0.892792
0.909819
0.906716
0.82066
0.749773
1
1
1
1
1
1
1
1
1
1
0.350932
0.000233993
1
1
1
1
1
1
1
1
1
1
0.750419
0.794095
0.869109
0.857954
0.877273
0.908794
0.872375
0.865488
0.870388
0.870388
0.865488
0.872375
0.908794
0.877273
0.857954
0.869109
0.794095
0.750419
1
1
1
1
1
1
1
1
1
1
0.000233993
0.000198885
0.736379
1
1
1
1
1
1
1
1
1
0.770607
0.725432
0.860062
0.89799
0.779385
0.712198
0.713486
0.727864
0.720125
0.720125
0.727864
0.713486
0.712198
0.779385
0.89799
0.860062
0.725432
0.770607
1
1
1
1
1
1
1
1
1
0.736379
0.000198885
5.08757e-07
0.2876
1
1
1
1
1
1
1
1
1
0.930021
0.736063
0.890818
0.738202
0.703794
0.719646
0.702872
0.7
0.7
0.7
0.7
0.702872
0.719646
0.703794
0.738202
0.890818
0.736063
0.930021
1
1
1
1
1
1
1
1
1
0.2876
5.08757e-07
1.1589e-08
0.0371121
0.763317
1
1
1
1
1
1
1
1
1
0.883536
0.925692
0.722874
0.703059
0.7
0.7
0.7
0.7
0.7
0.7
0.7
0.7
0.703059
0.722874
0.925692
0.883536
1
1
1
1
1
1
1
1
1
0.763317
0.0371121
1.1589e-08
1e-10
1.13534e-06
0.443539
1
1
1
1
1
1
1
1
1
0.883611
0.88681
0.7
0.7
0.7
0.7
0.7
0.7
0.7
0.7
0.7
0.7
0.7
0.7
0.88681
0.883611
1
1
1
1
1
1
1
1
1
0.443539
1.13534e-06
1e-10
1e-10
1.09527e-08
0.0722552
0.830686
1
1
1
1
1
1
1
1
1
0.82417
0.7
0.7
0.7
0.7
0.7
0.7
0.7
0.7
0.7
0.7
0.7
0.7
0.82417
1
1
1
1
1
1
1
1
1
0.830686
0.0722552
1.09527e-08
1e-10
1e-10
1e-10
2.17279e-06
0.248754
1
1
1
1
1
1
1
1
1
0.849022
0.7
0.7
0.7
0.7
0.7
0.7
0.7
0.7
0.7
0.7
0.7
0.7
0.849022
1
1
1
1
1
1
1
1
1
0.248754
2.17279e-06
1e-10
1e-10
1e-10
1e-10
1e-10
0.0514112
0.693986
1
1
1
1
1
1
1
1
1
0.7
0.7
0.7
0.7
0.7
0.7
0.7
0.7
0.7
0.7
0.7
0.7
1
1
1
1
1
1
1
1
1
0.693986
0.0514112
1e-10
1e-10
1e-10
1e-10
1e-10
1e-10
7.02753e-09
0.151192
1
1
1
1
1
1
1
1
1
0.754059
0.7
0.7
0.7
0.7
0.696653
0.696653
0.7
0.7
0.7
0.7
0.754059
1
1
1
1
1
1
1
1
1
0.151192
7.02753e-09
1e-10
1e-10
1e-10
1e-10
1e-10
1e-10
1e-10
0.0186326
0.678019
1
1
1
1
1
1
1
1
1
0.689503
0.7
0.682356
0.680766
0.687964
0.687964
0.680766
0.682356
0.7
0.689503
1
1
1
1
1
1
1
1
1
0.678019
0.0186326
1e-10
1e-10
1e-10
1e-10
1e-10
1e-10
1e-10
1e-10
1.25423e-10
0.112112
0.724322
1
1
1
1
1
1
1
1
0.888611
0.7
0.664763
0.670727
0.693173
0.693173
0.670727
0.664763
0.7
0.888611
1
1
1
1
1
1
1
1
0.724322
0.112112
1.25423e-10
1e-10
1e-10
1e-10
1e-10
1e-10
1e-10
1e-10
1e-10
1e-10
5.97389e-06
0.204486
1
1
1
1
1
1
1
1
1
0.75935
0.690126
0.647119
0.663902
0.663902
0.647119
0.690126
0.75935
1
1
1
1
1
1
1
1
1
0.204486
5.97389e-06
1e-10
1e-10
1e-10
1e-10
1e-10
1e-10
1e-10
1e-10
1e-10
1e-10
1e-10
0.0147727
0.364965
1
1
1
1
1
1
1
1
1
0.693918
0.653199
0.691853
0.691853
0.653199
0.693918
1
1
1
1
1
1
1
1
1
0.364965
0.0147727
1e-10
1e-10
1e-10
1e-10
1e-10
1e-10
1e-10
1e-10
1e-10
1e-10
1e-10
1e-10
1e-10
0.0853211
0.455464
1
1
1
1
1
1
1
1
0.882806
0.65374
0.812415
0.812415
0.65374
0.882806
1
1
1
1
1
1
1
1
0.455464
0.0853211
1e-10
1e-10
1e-10
1e-10
1e-10
1e-10
1e-10
1e-10
1e-10
1e-10
1e-10
1e-10
1e-10
1e-10
2.17432e-08
0.112543
0.613374
1
1
1
1
1
1
1
1
0.704502
0.630224
0.630224
0.704502
1
1
1
1
1
1
1
1
0.613374
0.112543
2.17432e-08
1e-10
1e-10
1e-10
1e-10
1e-10
1e-10
1e-10
1e-10
1e-10
1e-10
1e-10
1e-10
1e-10
1e-10
1e-10
3.63763e-07
0.114007
0.532615
1
1
1
1
1
1
1
1
0.818091
0.818091
1
1
1
1
1
1
1
1
0.532615
0.114007
3.63763e-07
1e-10
1e-10
1e-10
1e-10
1e-10
1e-10
1e-10
1e-10
1e-10
1e-10
1e-10
1e-10
1e-10
1e-10
1e-10
1e-10
1e-10
5.16817e-08
0.0986866
0.389903
1
1
1
1
1
1
1
0.724217
0.724217
1
1
1
1
1
1
1
0.389903
0.0986866
5.16817e-08
1e-10
1e-10
1e-10
1e-10
1e-10
1e-10
1e-10
1e-10
1e-10
1e-10
1e-10
1e-10
1e-10
1e-10
1e-10
1e-10
1e-10
1e-10
1e-10
1e-10
0.0293688
0.156472
0.873919
1
1
1
1
1
1
1
1
1
1
1
1
0.873919
0.156472
0.0293688
1e-10
1e-10
1e-10
1e-10
1e-10
1e-10
1e-10
1e-10
1e-10
1e-10
1e-10
1e-10
1e-10
1e-10
1e-10
1e-10
1e-10
1e-10
1e-10
1e-10
1e-10
1e-10
1e-10
3.91212e-06
0.104529
0.453409
0.934643
1
1
1
1
1
1
1
1
0.934643
0.453409
0.104529
3.91212e-06
1e-10
1e-10
1e-10
1e-10
1e-10
1e-10
1e-10
1e-10
1e-10
1e-10
1e-10
1e-10

SCALARS Rho1 float
LOOKUP_TABLE default
1
1
1
1
1
1
1
1
1
1
1
1
1
0.148111
0.0317437
0.0157213
0.00556143
0.000157435
4.43012e-08
1e-10
1e-10
4.43012e-08
0.000157435
0.00556143
0.0157213
0.0317437
0.148111
1
1
1
1
1
1
1
1
1
1
1
1
1
1
1
1
1
1
1
1
1
1
1
1
1
1
0.0550533
0.0105197
0.00317096
0.00210881
0.000141712
3.39152e-07
3.20634e-10
3.20634e-10
3.39152e-07
0.000141712
0.00210881
0.00317096
0.0105197
0.0550533
1
1
1
1
1
1
1
1
1
1
1
1
1
1
1
1
1
1
1
1
1
1
1
1
1
1
0.533313
0.0294336
0.00551783
0.000636568
0.000990026
0.000109097
2.62673e-06
2.62673e-06
0.000109097
0.000990026
0.000636568
0.00551783
0.0294336
0.533313
1
1
1
1
1
1
1
1
1
1
1
1
1
1
1
1
1
1
1
1
1
1
1
1
1
1
0.731321
0.110024
0.00168974
0.00380364
0.000332976
0.00175682
0.000378875
0.000378875
0.00175682
0.000332976
0.00380364
0.00168974
0.110024
0.731321
1
1
1
1
1
1
1
1
1
1
1
1
1
1
1
1
1
1
1
1
1
1
1
1
1
1
1
0.28157
0.0308914
0.0179207
0.00172346
0.00125768
0.000942453
0.000942453
0.00125768
0.00172346
0.0179207
0.0308914
0.28157
1
1
1
1
1
1
1
1
1
1
1
1
1
1
1
1
1
1
1
1
1
1
1
1
1
1
1
1
0.888616
0.195178
0.0586306
0.0154105
0.00123149
0.00376227
0.00376227
0.00123149
0.0154105
0.0586306
0.195178
0.888616
1
1
1
1
1
1
1
1
1
1
1
1
1
1
1
1
1
1
1
1
1
1
1
1
1
1
1
1
1
0.191596
0.182101
0.0223683
0.0115758
0.00349705
0.00349705
0.0115758
0.0223683
0.182101
0.191596
1
1
1
1
1
1
1
1
1
1
1
1
1
1
1
1
1
1
1
1
1
1
1
1
1
1
1
1
1
1
0.919501
0.234753
0.0483652
0.056489
0.0096541
0.0096541
0.056489
0.0483652
0.234753
0.919501
1
1
1
1
1
1
1
1
1
1
1
1
1
1
1
1
1
1
1
1
1
1
1
1
1
1
1
1
1
1
1
0.51544
0.139576
0.0576975
0.0167485
0.0167485
0.0576975
0.139576
0.51544
1
1
1
1
1
1
1
1
1
1
1
1
1
1
1
1
1
1
1
1
1
1
1
1
1
1
1
1
1
1
1
1
1
0.302408
0.135209
0.0467575
0.0467575
0.135209
0.302408
1
1
1
1
1
1
1
1
1
1
1
1
1
1
1
1
1
1
1
1
1
1
1
1
1
1
1
1
1
1
1
1
1
1
0.659953
0.511163
0.357466
0.357466
0.511163
0.659953
1
1
1
1
1
1
1
1
1
1
1
1
1
1
1
1
1
1
1
1
1
1
1
1
1
1
1
1
1
1
1
1
1
1
1
0.649173
0.328782
0.328782
0.649173
1
1
1
1
1
1
1
1
1
1
1
1
1
1
1
1
1
1
1
1
1
1
1
1
1
1
1
1
1
1
1
1
1
1
1
1
0.954519
0.670376
0.670376
0.954519
1
1
1
1
1
1
1
1
1
1
1
1
1
1
1
1
1
1
1
1
1
1
1
1
1
1
1
1
1
1
1
1
1
1
1
1
1
0.916444
0.916444
1
1
1
1
1
1
1
1
1
1
1
1
1
1
1
1
1
1
1
1
1
1
1
1
1
1
1
1
1
1
1
1
1
1
1
1
1
1
1
1
1
1
1
1
1
1
1
1
1
1
1
1
1
1
1
1
1
1
1
1
1
1
1
1
1
1
1
1
1
1
1
1
1
1
1
1
1
1
1
1
1
1
1
1
1
1
1
1
1
1
1
1
1
1
1
1
1
1
1
1
1
1
1
1
1
1
1
1
1
1
1
1
1
1
1
1
1
1
1
1
1
1
1
1
1
1
1
1
1
1
1
1
1
1
1
1
1
1
1
1
1
1
1
1
1
1
1
1
1
1
1
1
1
1
1
1
1
1
1
1
1
1
1
1
1
1
1
1
1
1
1
1
1
1
1
1
1
1
1
1
1
1
1
1
1
1
1
1
1
1
1
1
1
1
1
1
1
1
1
1
1
1
1
1
1
1
1
1
1
1
1
1
1
1
1
1
1
1
1
1
1
1
1
1
1
1
1
1
1
1
1
1
1
1
1
1
1
1
1
1
1
1
1
1
1
1
1
1
1
1
1
1
1
1
1
1
1
1
1
1
1
1
1
1
1
1
1
1
1
1
1
1
1
1
1
1
1
1
1
1
1
1
1
1
1
1
1
1
1
1
1
1
1
1
1
1
1
1
1
1
1
1
1
1
1
1
1
1
1
1
1
1
1
1
1
1
1
1
1
1
1
1
1
1
1
1
1
1
1
1
1
1
1
1
1
1
1
1
1
1
1
1
1
1
1
1
1
1
1
1
1
1
1
1
1
1
1
1
1
1
1
1
1
1
1
1
1
1
1
1
1
1
1
1
1
1
1
1
1
1
1
1
1
1
1
1
1
1
1
1
1
1
1
1
1
1
0.869118
1
1
1
1
0.869118
1
1
1
1
1
1
1
1
1
1
1
1
1
1
1
1
1
1
1
1
1
1
1
1
1
1
1
1
1
1
1
1
1
1
0.845362
1
0.895462
0.895462
1
0.845362
1
1
1
1
1
1
1
1
1
1
1
1
1
1
1
1
1
1
1
1
1
1
1
1
1
1
1
1
0.914328
0.676216
1
0.86709
1
0.961627
0.811968
0.88258
0.837917
0.837917
0.88258
0.811968
0.961627
1
0.86709
1
0.676216
0.914328
1
1
1
1
1
1
1
1
1
1
1
1
1
1
1
1
1
1
1
1
1
1
0.703597
0.647074
1
1
0.706666
0.836189
0.966032
0.828697
0.848267
0.848267
0.828697
0.966032
0.836189
0.706666
1
1
0.647074
0.703597
1
1
1
1
1
1
1
1
1
1
1
1
1
1
1
1
1
1
1
1
1
1
0.721261
0.783135
0.737219
0.873763
0.624267
0.665711
1
0.913666
0.913107
0.913107
0.913666
1
0.665711
0.624267
0.873763
0.737219
0.783135
0.721261
1
1
1
1
1
1
1
1
1
1
1
1
1
1
1
1
1
1
1
1
1
1
0.639001
0.771184
0.758483
0.714058
0.617771
0.691193
0.883118
0.94294
0.875524
0.875524
0.94294
0.883118
0.691193
0.617771
0.714058
0.758483
0.771184
0.639001
1
1
1
1
1
1
1
1
1
1
1
1
1
1
1
1
1
1
1
1
1
1
0.608724
0.67984
0.532615
0.457227
0.627769
0.910947
0.847538
0.8666
0.724451
0.724451
0.8666
0.847538
0.910947
0.627769
0.457227
0.532615
0.67984
0.608724
1
1
1
1
1
1
1
1
1
1
1
1
1
1
1
1
1
1
1
1
1
1
0.703512
0.664342
0.550947
0.46737
0.517168
0.806245
0.849787
0.832166
0.6814
0.6814
0.832166
0.849787
0.806245
0.517168
0.46737
0.550947
0.664342
0.703512
1
1
1
1
1
1
1
1
1
1
1
1
1
1
1
1
1
1
1
1
1
1
0.672392
0.563795
0.51545
0.506306
0.746225
0.640757
0.763795
0.829433
0.623864
0.623864
0.829433
0.763795
0.640757
0.746225
0.506306
0.51545
0.563795
0.672392
1
1
1
1
1
1
1
1
1
1
1
1
1
1
1
1
1
1
1
1
1
1
0.717644
0.519603
0.414606
0.475835
0.599617
0.606124
0.666564
0.73156
0.53527
0.53527
0.73156
0.666564
0.606124
0.599617
0.475835
0.414606
0.519603
0.717644
1
1
1
1
1
1
1
1
1
1
1
1
1
1
1
1
1
1
1
1
1
1
0.68837
0.504804
0.388227
0.490481
0.546407
0.585301
0.640915
0.667216
0.433427
0.433427
0.667216
0.640915
0.585301
0.546407
0.490481
0.388227
0.504804
0.68837
1
1
1
1
1
1
1
1
1
1
1
1
1
1
1
1
1
1
1
1
1
1
0.702919
0.527028
0.393827
0.38039
0.544266
0.575365
0.587403
0.627342
0.452805
0.452805
0.627342
0.587403
0.575365
0.544266
0.38039
0.393827
0.527028
0.702919
1
1
1
1
1
1
1
1
1
1
1
1
1
1
1
1
1
1
1
1
1
1
0.691671
0.531285
0.458861
0.435927
0.520507
0.546583
0.529447
0.49973
0.389689
0.389689
0.49973
0.529447
0.546583
0.520507
0.435927
0.458861
0.531285
0.691671
1
1
1
1
1
1
1
1
1
1
1
1
1
1
1
1
1
1
1
1
1
1
0.642546
0.404292
0.404765
0.498553
0.473642
0.423473
0.430056
0.23503
0.337324
0.337324
0.23503
0.430056
0.423473
0.473642
0.498553
0.404765
0.404292
0.642546
1
1
1
1
1
1
1
1
1
1
1
1
1
1
1
1
1
1
1
1
1
1
0.59647
0.3722
0.512333
0.442287
0.339896
0.318112
0.285556
0.253633
0.270603
0.270603
0.253633
0.285556
0.318112
0.339896
0.442287
0.512333
0.3722
0.59647
1
1
1
1
1
1
1
1
1
1
1
1
1
1
1
1
1
1
1
1
1
1
0.555672
0.411446
0.524215
0.260326
0.267074
0.279709
0.464377
0.484735
0.499955
0.499955
0.484735
0.464377
0.279709
0.267074
0.260326
0.524215
0.411446
0.555672
1
1
1
1
1
1
1
1
1
1
1
0.742948
1
1
1
1
1
1
1
1
1
1
0.567376
0.353354
0.522707
0.401004
0.431038
0.438972
0.540551
0.567521
0.494431
0.494431
0.567521
0.540551
0.438972
0.431038
0.401004
0.522707
0.353354
0.567376
1
1
1
1
1
1
1
1
1
1
0.742948
0.350932
1
1
1
1
1
1
1
1
1
1
0.550719
0.245251
0.494811
0.442095
0.453984
0.554754
0.568177
0.559622
0.580887
0.580887
0.559622
0.568177
0.554754
0.453984
0.442095
0.494811
0.245251
0.550719
1
1
1
1
1
1
1
1
1
1
0.350932
0.000164007
1
1
1
1
1
1
1
1
1
1
0.539604
0.270356
0.48983
0.502117
0.636196
0.514306
0.498278
0.482364
0.460542
0.460542
0.482364
0.498278
0.514306
0.636196
0.502117
0.48983
0.270356
0.539604
1
1
1
1
1
1
1
1
1
1
0.000164007
5.10558e-05
0.415118
1
1
1
1
1
1
1
1
1
0.574761
0.435311
0.504227
0.611349
0.238165
0.34727
0.363125
0.324974
0.332949
0.332949
0.324974
0.363125
0.34727
0.238165
0.611349
0.504227
0.435311
0.574761
1
1
1
1
1
1
1
1
1
0.415118
5.10558e-05
1.13847e-09
0.116114
1
1
1
1
1
1
1
1
1
0.652143
0.398768
0.58196
0.363704
0.334128
0.332904
0.362152
0.373755
0.379844
0.379844
0.373755
0.362152
0.332904
0.334128
0.363704
0.58196
0.398768
0.652143
1
1
1
1
1
1
1
1
1
0.116114
1.13847e-09
1e-10
0.000921626
0.478097
1
1
1
1
1
1
1
1
1
0.58761
0.381361
0.321979
0.377256
0.363173
0.359823
0.354582
0.358122
0.358122
0.354582
0.359823
0.363173
0.377256
0.321979
0.381361
0.58761
1
1
1
1
1
1
1
1
1
0.478097
0.000921626
1e-10
1e-10
1.05132e-08
0.0325839
1
1
1
1
1
1
1
1
1
0.560198
0.517542
0.409495
0.388019
0.358982
0.340878
0.336879
0.333825
0.333825
0.336879
0.340878
0.358982
0.388019
0.409495
0.517542
0.560198
1
1
1
1
1
1
1
1
1
0.0325839
1.05132e-08
1e-10
1e-10
1e-10
0.000746294
0.481794
1
1
1
1
1
1
1
1
0.876034
0.525206
0.384049
0.360605
0.341735
0.325316
0.319268
0.314194
0.314194
0.319268
0.325316
0.341735
0.360605
0.384049
0.525206
0.876034
1
1
1
1
1
1
1
1
0.481794
0.000746294
1e-10
1e-10
1e-10
1e-10
2.43499e-09
0.0193396
1
1
1
1
1
1
1
1
1
0.555711
0.305172
0.305094
0.302718
0.300672
0.291035
0.290247
0.290247
0.291035
0.300672
0.302718
0.305094
0.305172
0.555711
1
1
1
1
1
1
1
1
1
0.0193396
2.43499e-09
1e-10
1e-10
1e-10
1e-10
1e-10
0.0031015
0.248146
1
1
1
1
1
1
1
1
0.574386
0.2983
0.248002
0.264298
0.26659
0.263219
0.260513
0.260513
0.263219
0.26659
0.264298
0.248002
0.2983
0.574386
1
1
1
1
1
1
1
1
0.248146
0.0031015
1e-10
1e-10
1e-10
1e-10
1e-10
1e-10
1e-10
0.0278547
0.859385
1
1
1
1
1
1
1
1
0.517216
0.247663
0.210875
0.226135
0.234691
0.240821
0.240821
0.234691
0.226135
0.210875
0.247663
0.517216
1
1
1
1
1
1
1
1
0.859385
0.0278547
1e-10
1e-10
1e-10
1e-10
1e-10
1e-10
1e-10
1e-10
0.000211284
0.15951
1
1
1
1
1
1
1
1
1
0.345234
0.202877
0.257682
0.267403
0.247456
0.247456
0.267403
0.257682
0.202877
0.345234
1
1
1
1
1
1
1
1
1
0.15951
0.000211284
1e-10
1e-10
1e-10
1e-10
1e-10
1e-10
1e-10
1e-10
1e-10
0.00970228
0.440516
1
1
1
1
1
1
1
1
0.499894
0.189359
0.280529
0.276244
0.192746
0.192746
0.276244
0.280529
0.189359
0.499894
1
1
1
1
1
1
1
1
0.440516
0.00970228
1e-10
1e-10
1e-10
1e-10
1e-10
1e-10
1e-10
1e-10
1e-10
1e-10
9.66173e-10
0.0424915
0.800042
1
1
1
1
1
1
1
1
0.362803
0.192743
0.305722
0.271151
0.271151
0.305722
0.192743
0.362803
1
1
1
1
1
1
1
1
0.800042
0.0424915
9.66173e-10
1e-10
1e-10
1e-10
1e-10
1e-10
1e-10
1e-10
1e-10
1e-10
1e-10
1e-10
4.49138e-05
0.112253
1
1
1
1
1
1
1
1
1
0.232376
0.275167
0.124103
0.124103
0.275167
0.232376
1
1
1
1
1
1
1
1
1
0.112253
4.49138e-05
1e-10
1e-10
1e-10
1e-10
1e-10
1e-10
1e-10
1e-10
1e-10
1e-10
1e-10
1e-10
1e-10
0.00131214
0.146898
1
1
1
1
1
1
1
1
0.639196
0.289971
0.239276
0.239276
0.289971
0.639196
1
1
1
1
1
1
1
1
0.146898
0.00131214
1e-10
1e-10
1e-10
1e-10
1e-10
1e-10
1e-10
1e-10
1e-10
1e-10
1e-10
1e-10
1e-10
1e-10
1e-10
0.00263129
0.212817
1
1
1
1
1
1
1
1
0.422292
0.304379
0.304379
0.422292
1
1
1
1
1
1
1
1
0.212817
0.00263129
1e-10
1e-10
1e-10
1e-10
1e-10
1e-10
1e-10
1e-10
1e-10
1e-10
1e-10
1e-10
1e-10
1e-10
1e-10
1e-10
1e-10
0.00235316
0.162161
1
1
1
1
1
1
1
1
0.282013
0.282013
1
1
1
1
1
1
1
1
0.162161
0.00235316
1e-10
1e-10
1e-10
1e-10
1e-10
1e-10
1e-10
1e-10
1e-10
1e-10
1e-10
1e-10
1e-10
1e-10
1e-10
1e-10
1e-10
1e-10
1e-10
0.00135674
0.137301
0.776401
1
1
1
1
1
1
0.412704
0.412704
1
1
1
1
1
1
0.776401
0.137301
0.00135674
1e-10
1e-10
1e-10
1e-10
1e-10
1e-10
1e-10
1e-10
1e-10
1e-10
1e-10
1e-10
1e-10
1e-10
1e-10
1e-10
1e-10
1e-10
1e-10
1e-10
1e-10
6.40904e-05
0.0363984
0.649679
1
1
1
1
1
1
1
1
1
1
1
1
0.649679
0.0363984
6.40904e-05
1e-10
1e-10
1e-10
1e-10
1e-10
1e-10
1e-10
1e-10
1e-10
1e-10
1e-10
1e-10
1e-10
1e-10
1e-10
1e-10
1e-10
1e-10
1e-10
1e-10
1e-10
1e-10
1e-10
5.3912e-10
0.00265698
0.124385
0.747715
1
1
1
1
1
1
1
1
0.747715
0.124385
0.00265698
5.3912e-10
1e-10
1e-10
1e-10
1e-10
1e-10
1e-10
1e-10
1e-10
1e-10
1e-10
1e-10
1e-10


POINT_DATA	7401
VECTORS u0 float
0	0	0
0	0	0
0	0	0
0	0	0
0	0	0
0	0	0
0	0	0
0	0	0
0	0	0
0	0	0
0	0	0
0	0	0
0	0	0
0	0	0
0	0	0
0	0	0
0	0	0
0	0	0
0	0	0
0	0	0
0	0	0
0	0	0
0	0	0