# vtk DataFile Version 4.1
vtk output
ASCII
DATASET UNSTRUCTURED_GRID

POINTS	7401	float
0	0	0.0	
0	1	0.0	
0	2	0.0	
0	3	0.0	
0	4	0.0	
0	5	0.0	
0	6	0.0	
0	7	0.0	
0	8	0.0	
0	9	0.0	
0	10	0.0	
0	11	0.0	
0	12	0.0	
0	13	0.0	
0	14	0.0	
0	15	0.0	
0	16	0.0	
0	17	0.0	
0	18	0.0	
0	19	0.0	
0	20	0.0	
0	21	0.0	
0	22	0.0	
0	23	0.0	
0	24	0.0	
0	25	0.0	
0	26	0.0	
0	27	0.0	
0	28	0.0	
0	29	0.0	
0	30	0.0	
0	31	0.0	
0	32	0.0	
0	33	0.0	
0	34	0.0	
0	35	0.0	
0	36	0.0	
0	37	0.0	
0	38	0.0	
0	39	0.0	
0	40	0.0	
1	0	0.0	
1	1	0.0	
1	2	0.0	
1	3	0.0	
1	4	0.0	
1	5	0.0	
1	6	0.0	
1	7	0.0	
1	8	0.0	
1	9	0.0	
1	10	0.0	
1	11	0.0	
1	12	0.0	
1	13	0.0	
1	14	0.0	
1	15	0.0	
1	16	0.0	
1	17	0.0	
1	18	0.0	
1	19	0.0	
1	20	0.0	
1	21	0.0	
1	22	0.0	
1	23	0.0	
1	24	0.0	
1	25	0.0	
1	26	0.0	
1	27	0.0	
1	28	0.0	
1	29	0.0	
1	30	0.0	
1	31	0.0	
1	32	0.0	
1	33	0.0	
1	34	0.0	
1	35	0.0	
1	36	0.0	
1	37	0.0	
1	38	0.0	
1	39	0.0	
1	40	0.0	
2	0	0.0	
2	1	0.0	
2	2	0.0	
2	3	0.0	
2	4	0.0	
2	5	0.0	
2	6	0.0	
2	7	0.0	
2	8	0.0	
2	9	0.0	
2	10	0.0	
2	11	0.0	
2	12	0.0	
2	13	0.0	
2	14	0.0	
2	15	0.0	
2	16	0.0	
2	17	0.0	
2	18	0.0	
2	19	0.0	
2	20	0.0	
2	21	0.0	
2	22	0.0	
2	23	0.0	
2	24	0.0	
2	25	0.0	
2	26	0.0	
2	27	0.0	
2	28	0.0	
2	29	0.0	
2	30	0.0	
2	31	0.0	
2	32	0.0	
2	33	0.0	
2	34	0.0	
2	35	0.0	
2	36	0.0	
2	37	0.0	
2	38	0.0	
2	39	0.0	
2	40	0.0	
3	0	0.0	
3	1	0.0	
3	2	0.0	
3	3	0.0	
3	4	0.0	
3	5	0.0	
3	6	0.0	
3	7	0.0	
3	8	0.0	
3	9	0.0	
3	10	0.0	
3	11	0.0	
3	12	0.0	
3	13	0.0	
3	14	0.0	
3	15	0.0	
3	16	0.0	
3	17	0.0	
3	18	0.0	
3	19	0.0	
3	20	0.0	
3	21	0.0	
3	22	0.0	
3	23	0.0	
3	24	0.0	
3	25	0.0	
3	26	0.0	
3	27	0.0	
3	28	0.0	
3	29	0.0	
3	30	0.0	
3	31	0.0	
3	32	0.0	
3	33	0.0	
3	34	0.0	
3	35	0.0	
3	36	0.0	
3	37	0.0	
3	38	0.0	
3	39	0.0	
3	40	0.0	
4	0	0.0	
4	1	0.0	
4	2	0.0	
4	3	0.0	
4	4	0.0	
4	5	0.0	
4	6	0.0	
4	7	0.0	
4	8	0.0	
4	9	0.0	
4	10	0.0	
4	11	0.0	
4	12	0.0	
4	13	0.0	
4	14	0.0	
4	15	0.0	
4	16	0.0	
4	17	0.0	
4	18	0.0	
4	19	0.0	
4	20	0.0	
4	21	0.0	
4	22	0.0	
4	23	0.0	
4	24	0.0	
4	25	0.0	
4	26	0.0	
4	27	0.0	
4	28	0.0	
4	29	0.0	
4	30	0.0	
4	31	0.0	
4	32	0.0	
4	33	0.0	
4	34	0.0	
4	35	0.0	
4	36	0.0	
4	37	0.0	
4	38	0.0	
4	39	0.0	
4	40	0.0	
5	0	0.0	
5	1	0.0	
5	2	0.0	
5	3	0.0	
5	4	0.0	
5	5	0.0	
5	6	0.0	
5	7	0.0	
5	8	0.0	
5	9	0.0	
5	10	0.0	
5	11	0.0	
5	12	0.0	
5	13	0.0	
5	14	0.0	
5	15	0.0	
5	16	0.0	
5	17	0.0	
5	18	0.0	
5	19	0.0	
5	20	0.0	
5	21	0.0	
5	22	0.0	
5	23	0.0	
5	24	0.0	
5	25	0.0	
5	26	0.0	
5	27	0.0	
5	28	0.0	
5	29	0.0	
5	30	0.0	
5	31	0.0	
5	32	0.0	
5	33	0.0	
5	34	0.0	
5	35	0.0	
5	36	0.0	
5	37	0.0	
5	38	0.0	
5	39	0.0	
5	40	0.0	
6	0	0.0	
6	1	0.0	
6	2	0.0	
6	3	0.0	
6	4	0.0	
6	5	0.0	
6	6	0.0	
6	7	0.0	
6	8	0.0	
6	9	0.0	
6	10	0.0	
6	11	0.0	
6	12	0.0	
6	13	0.0	
6	14	0.0	
6	15	0.0	
6	16	0.0	
6	17	0.0	
6	18	0.0	
6	19	0.0	
6	20	0.0	
6	21	0.0	
6	22	0.0	
6	23	0.0	
6	24	0.0	
6	25	0.0	
6	26	0.0	
6	27	0.0	
6	28	0.0	
6	29	0.0	
6	30	0.0	
6	31	0.0	
6	32	0.0	
6	33	0.0	
6	34	0.0	
6	35	0.0	
6	36	0.0	
6	37	0.0	
6	38	0.0	
6	39	0.0	
6	40	0.0	
7	0	0.0	
7	1	0.0	
7	2	0.0	
7	3	0.0	
7	4	0.0	
7	5	0.0	
7	6	0.0	
7	7	0.0	
7	8	0.0	
7	9	0.0	
7	10	0.0	
7	11	0.0	
7	12	0.0	
7	13	0.0	
7	14	0.0	
7	15	0.0	
7	16	0.0	
7	17	0.0	
7	18	0.0	
7	19	0.0	
7	20	0.0	
7	21	0.0	
7	22	0.0	
7	23	0.0	
7	24	0.0	
7	25	0.0	
7	26	0.0	
7	27	0.0	
7	28	0.0	
7	29	0.0	
7	30	0.0	
7	31	0.0	
7	32	0.0	
7	33	0.0	
7	34	0.0	
7	35	0.0	
7	36	0.0	
7	37	0.0	
7	38	0.0	
7	39	0.0	
7	40	0.0	
8	0	0.0	
8	1	0.0	
8	2	0.0	
8	3	0.0	
8	4	0.0	
8	5	0.0	
8	6	0.0	
8	7	0.0	
8	8	0.0	
8	9	0.0	
8	10	0.0	
8	11	0.0	
8	12	0.0	
8	13	0.0	
8	14	0.0	
8	15	0.0	
8	16	0.0	
8	17	0.0	
8	18	0.0	
8	19	0.0	
8	20	0.0	
8	21	0.0	
8	22	0.0	
8	23	0.0	
8	24	0.0	
8	25	0.0	
8	26	0.0	
8	27	0.0	
8	28	0.0	
8	29	0.0	
8	30	0.0	
8	31	0.0	
8	32	0.0	
8	33	0.0	
8	34	0.0	
8	35	0.0	
8	36	0.0	
8	37	0.0	
8	38	0.0	
8	39	0.0	
8	40	0.0	
9	0	0.0	
9	1	0.0	
9	2	0.0	
9	3	0.0	
9	4	0.0	
9	5	0.0	
9	6	0.0	
9	7	0.0	
9	8	0.0	
9	9	0.0	
9	10	0.0	
9	11	0.0	
9	12	0.0	
9	13	0.0	
9	14	0.0	
9	15	0.0	
9	16	0.0	
9	17	0.0	
9	18	0.0	
9	19	0.0	
9	20	0.0	
9	21	0.0	
9	22	0.0	
9	23	0.0	
9	24	0.0	
9	25	0.0	
9	26	0.0	
9	27	0.0	
9	28	0.0	
9	29	0.0	
9	30	0.0	
9	31	0.0	
9	32	0.0	
9	33	0.0	
9	34	0.0	
9	35	0.0	
9	36	0.0	
9	37	0.0	
9	38	0.0	
9	39	0.0	
9	40	0.0	
10	0	0.0	
10	1	0.0	
10	2	0.0	
10	3	0.0	
10	4	0.0	
10	5	0.0	
10	6	0.0	
10	7	0.0	
10	8	0.0	
10	9	0.0	
10	10	0.0	
10	11	0.0	
10	12	0.0	
10	13	0.0	
10	14	0.0	
10	15	0.0	
10	16	0.0	
10	17	0.0	
10	18	0.0	
10	19	0.0	
10	20	0.0	
10	21	0.0	
10	22	0.0	
10	23	0.0	
10	24	0.0	
10	25	0.0	
10	26	0.0	
10	27	0.0	
10	28	0.0	
10	29	0.0	
10	30	0.0	
10	31	0.0	
10	32	0.0	
10	33	0.0	
10	34	0.0	
10	35	0.0	
10	36	0.0	
10	37	0.0	
10	38	0.0	
10	39	0.0	
10	40	0.0	
11	0	0.0	
11	1	0.0	
11	2	0.0	
11	3	0.0	
11	4	0.0	
11	5	0.0	
11	6	0.0	
11	7	0.0	
11	8	0.0	
11	9	0.0	
11	10	0.0	
11	11	0.0	
11	12	0.0	
11	13	0.0	
11	14	0.0	
11	15	0.0	
11	16	0.0	
11	17	0.0	
11	18	0.0	
11	19	0.0	
11	20	0.0	
11	21	0.0	
11	22	0.0	
11	23	0.0	
11	24	0.0	
11	25	0.0	
11	26	0.0	
11	27	0.0	
11	28	0.0	
11	29	0.0	
11	30	0.0	
11	31	0.0	
11	32	0.0	
11	33	0.0	
11	34	0.0	
11	35	0.0	
11	36	0.0	
11	37	0.0	
11	38	0.0	
11	39	0.0	
11	40	0.0	
12	0	0.0	
12	1	0.0	
12	2	0.0	
12	3	0.0	
12	4	0.0	
12	5	0.0	
12	6	0.0	
12	7	0.0	
12	8	0.0	
12	9	0.0	
12	10	0.0	
12	11	0.0	
12	12	0.0	
12	13	0.0	
12	14	0.0	
12	15	0.0	
12	16	0.0	
12	17	0.0	
12	18	0.0	
12	19	0.0	
12	20	0.0	
12	21	0.0	
12	22	0.0	
12	23	0.0	
12	24	0.0	
12	25	0.0	
12	26	0.0	
12	27	0.0	
12	28	0.0	
12	29	0.0	
12	30	0.0	
12	31	0.0	
12	32	0.0	
12	33	0.0	
12	34	0.0	
12	35	0.0	
12	36	0.0	
12	37	0.0	
12	38	0.0	
12	39	0.0	
12	40	0.0	
13	0	0.0	
13	1	0.0	
13	2	0.0	
13	3	0.0	
13	4	0.0	
13	5	0.0	
13	6	0.0	
13	7	0.0	
13	8	0.0	
13	9	0.0	
13	10	0.0	
13	11	0.0	
13	12	0.0	
13	13	0.0	
13	14	0.0	
13	15	0.0	
13	16	0.0	
13	17	0.0	
13	18	0.0	
13	19	0.0	
13	20	0.0	
13	21	0.0	
13	22	0.0	
13	23	0.0	
13	24	0.0	
13	25	0.0	
13	26	0.0	
13	27	0.0	
13	28	0.0	
13	29	0.0	
13	30	0.0	
13	31	0.0	
13	32	0.0	
13	33	0.0	
13	34	0.0	
13	35	0.0	
13	36	0.0	
13	37	0.0	
13	38	0.0	
13	39	0.0	
13	40	0.0	
14	0	0.0	
14	1	0.0	
14	2	0.0	
14	3	0.0	
14	4	0.0	
14	5	0.0	
14	6	0.0	
14	7	0.0	
14	8	0.0	
14	9	0.0	
14	10	0.0	
14	11	0.0	
14	12	0.0	
14	13	0.0	
14	14	0.0	
14	15	0.0	
14	16	0.0	
14	17	0.0	
14	18	0.0	
14	19	0.0	
14	20	0.0	
14	21	0.0	
14	22	0.0	
14	23	0.0	
14	24	0.0	
14	25	0.0	
14	26	0.0	
14	27	0.0	
14	28	0.0	
14	29	0.0	
14	30	0.0	
14	31	0.0	
14	32	0.0	
14	33	0.0	
14	34	0.0	
14	35	0.0	
14	36	0.0	
14	37	0.0	
14	38	0.0	
14	39	0.0	
14	40	0.0	
15	0	0.0	
15	1	0.0	
15	2	0.0	
15	3	0.0	
15	4	0.0	
15	5	0.0	
15	6	0.0	
15	7	0.0	
15	8	0.0	
15	9	0.0	
15	10	0.0	
15	11	0.0	
15	12	0.0	
15	13	0.0	
15	14	0.0	
15	15	0.0	
15	16	0.0	
15	17	0.0	
15	18	0.0	
15	19	0.0	
15	20	0.0	
15	21	0.0	
15	22	0.0	
15	23	0.0	
15	24	0.0	
15	25	0.0	
15	26	0.0	
15	27	0.0	
15	28	0.0	
15	29	0.0	
15	30	0.0	
15	31	0.0	
15	32	0.0	
15	33	0.0	
15	34	0.0	
15	35	0.0	
15	36	0.0	
15	37	0.0	
15	38	0.0	
15	39	0.0	
15	40	0.0	
16	0	0.0	
16	1	0.0	
16	2	0.0	
16	3	0.0	
16	4	0.0	
16	5	0.0	
16	6	0.0	
16	7	0.0	
16	8	0.0	
16	9	0.0	
16	10	0.0	
16	11	0.0	
16	12	0.0	
16	13	0.0	
16	14	0.0	
16	15	0.0	
16	16	0.0	
16	17	0.0	
16	18	0.0	
16	19	0.0	
16	20	0.0	
16	21	0.0	
16	22	0.0	
16	23	0.0	
16	24	0.0	
16	25	0.0	
16	26	0.0	
16	27	0.0	
16	28	0.0	
16	29	0.0	
16	30	0.0	
16	31	0.0	
16	32	0.0	
16	33	0.0	
16	34	0.0	
16	35	0.0	
16	36	0.0	
16	37	0.0	
16	38	0.0	
16	39	0.0	
16	40	0.0	
17	0	0.0	
17	1	0.0	
17	2	0.0	
17	3	0.0	
17	4	0.0	
17	5	0.0	
17	6	0.0	
17	7	0.0	
17	8	0.0	
17	9	0.0	
17	10	0.0	
17	11	0.0	
17	12	0.0	
17	13	0.0	
17	14	0.0	
17	15	0.0	
17	16	0.0	
17	17	0.0	
17	18	0.0	
17	19	0.0	
17	20	0.0	
17	21	0.0	
17	22	0.0	
17	23	0.0	
17	24	0.0	
17	25	0.0	
17	26	0.0	
17	27	0.0	
17	28	0.0	
17	29	0.0	
17	30	0.0	
17	31	0.0	
17	32	0.0	
17	33	0.0	
17	34	0.0	
17	35	0.0	
17	36	0.0	
17	37	0.0	
17	38	0.0	
17	39	0.0	
17	40	0.0	
18	0	0.0	
18	1	0.0	
18	2	0.0	
18	3	0.0	
18	4	0.0	
18	5	0.0	
18	6	0.0	
18	7	0.0	
18	8	0.0	
18	9	0.0	
18	10	0.0	
18	11	0.0	
18	12	0.0	
18	13	0.0	
18	14	0.0	
18	15	0.0	
18	16	0.0	
18	17	0.0	
18	18	0.0	
18	19	0.0	
18	20	0.0	
18	21	0.0	
18	22	0.0	
18	23	0.0	
18	24	0.0	
18	25	0.0	
18	26	0.0	
18	27	0.0	
18	28	0.0	
18	29	0.0	
18	30	0.0	
18	31	0.0	
18	32	0.0	
18	33	0.0	
18	34	0.0	
18	35	0.0	
18	36	0.0	
18	37	0.0	
18	38	0.0	
18	39	0.0	
18	40	0.0	
19	0	0.0	
19	1	0.0	
19	2	0.0	
19	3	0.0	
19	4	0.0	
19	5	0.0	
19	6	0.0	
19	7	0.0	
19	8	0.0	
19	9	0.0	
19	10	0.0	
19	11	0.0	
19	12	0.0	
19	13	0.0	
19	14	0.0	
19	15	0.0	
19	16	0.0	
19	17	0.0	
19	18	0.0	
19	19	0.0	
19	20	0.0	
19	21	0.0	
19	22	0.0	
19	23	0.0	
19	24	0.0	
19	25	0.0	
19	26	0.0	
19	27	0.0	
19	28	0.0	
19	29	0.0	
19	30	0.0	
19	31	0.0	
19	32	0.0	
19	33	0.0	
19	34	0.0	
19	35	0.0	
19	36	0.0	
19	37	0.0	
19	38	0.0	
19	39	0.0	
19	40	0.0	
20	0	0.0	
20	1	0.0	
20	2	0.0	
20	3	0.0	
20	4	0.0	
20	5	0.0	
20	6	0.0	
20	7	0.0	
20	8	0.0	
20	9	0.0	
20	10	0.0	
20	11	0.0	
20	12	0.0	
20	13	0.0	
20	14	0.0	
20	15	0.0	
20	16	0.0	
20	17	0.0	
20	18	0.0	
20	19	0.0	
20	20	0.0	
20	21	0.0	
20	22	0.0	
20	23	0.0	
20	24	0.0	
20	25	0.0	
20	26	0.0	
20	27	0.0	
20	28	0.0	
20	29	0.0	
20	30	0.0	
20	31	0.0	
20	32	0.0	
20	33	0.0	
20	34	0.0	
20	35	0.0	
20	36	0.0	
20	37	0.0	
20	38	0.0	
20	39	0.0	
20	40	0.0	
21	0	0.0	
21	1	0.0	
21	2	0.0	
21	3	0.0	
21	4	0.0	
21	5	0.0	
21	6	0.0	
21	7	0.0	
21	8	0.0	
21	9	0.0	
21	10	0.0	
21	11	0.0	
21	12	0.0	
21	13	0.0	
21	14	0.0	
21	15	0.0	
21	16	0.0	
21	17	0.0	
21	18	0.0	
21	19	0.0	
21	20	0.0	
21	21	0.0	
21	22	0.0	
21	23	0.0	
21	24	0.0	
21	25	0.0	
21	26	0.0	
21	27	0.0	
21	28	0.0	
21	29	0.0	
21	30	0.0	
21	31	0.0	
21	32	0.0	
21	33	0.0	
21	34	0.0	
21	35	0.0	
21	36	0.0	
21	37	0.0	
21	38	0.0	
21	39	0.0	
21	40	0.0	
22	0	0.0	
22	1	0.0	
22	2	0.0	
22	3	0.0	
22	4	0.0	
22	5	0.0	
22	6	0.0	
22	7	0.0	
22	8	0.0	
22	9	0.0	
22	10	0.0	
22	11	0.0	
22	12	0.0	
22	13	0.0	
22	14	0.0	
22	15	0.0	
22	16	0.0	
22	17	0.0	
22	18	0.0	
22	19	0.0	
22	20	0.0	
22	21	0.0	
22	22	0.0	
22	23	0.0	
22	24	0.0	
22	25	0.0	
22	26	0.0	
22	27	0.0	
22	28	0.0	
22	29	0.0	
22	30	0.0	
22	31	0.0	
22	32	0.0	
22	33	0.0	
22	34	0.0	
22	35	0.0	
22	36	0.0	
22	37	0.0	
22	38	0.0	
22	39	0.0	
22	40	0.0	
23	0	0.0	
23	1	0.0	
23	2	0.0	
23	3	0.0	
23	4	0.0	
23	5	0.0	
23	6	0.0	
23	7	0.0	
23	8	0.0	
23	9	0.0	
23	10	0.0	
23	11	0.0	
23	12	0.0	
23	13	0.0	
23	14	0.0	
23	15	0.0	
23	16	0.0	
[...]
CELL_DATA	2400
SCALARS Rho0 float
LOOKUP_TABLE default
1
1
1
1
1
1e-10
1e-10
1e-10
1e-10
1e-10
1e-10
1e-10
1e-10
1e-10
1e-10
1e-10
1e-10
1e-10
1e-10
1e-10
1e-10
1e-10
1e-10
1e-10
1e-10
1e-10
1e-10
1e-10
1e-10
1e-10
1e-10
1e-10
1e-10
1e-10
1e-10
1
1
1
1
1
1
1
1
1
1
1e-10
1e-10
1e-10
1e-10
1e-10
1e-10
1e-10
1e-10
1e-10
1e-10
1e-10
1e-10
1e-10
1e-10
1e-10
1e-10
1e-10
1e-10
1e-10
1e-10
1e-10
1e-10
1e-10
1e-10
1e-10
1e-10
1e-10
1e-10
1e-10
1e-10
1
1
1
1
1
1
1
1
1
1
1
1e-10
1e-10
1e-10
1e-10
1e-10
1e-10
1e-10
1e-10
1e-10
1e-10
1e-10
1e-10
1e-10
1e-10
1e-10
1e-10
1e-10
1e-10
1e-10
1e-10
1e-10
1e-10
1e-10
1e-10
1e-10
1e-10
1e-10
1e-10
1
1
1
1
1
1
1
1
1
1
1
1
1e-10
1e-10
1e-10
1e-10
1e-10
1e-10
1e-10
1e-10
1e-10
1e-10
1e-10
1e-10
1e-10
1e-10
1e-10
1e-10
1e-10
1e-10
1e-10
1e-10
1e-10
1e-10
1e-10
1e-10
1e-10
1e-10
1e-10
1e-10
1
1
1
1
1
1
1
1
1
1
1
1
1
1e-10
1e-10
1e-10
1e-10
1e-10
1e-10
1e-10
1e-10
1e-10
1e-10
1e-10
1e-10
1e-10
1e-10
1e-10
1e-10
1e-10
1e-10
1e-10
1e-10
1e-10
1e-10
1e-10
1e-10
1e-10
1e-10
1
1
1
1
1
1
1
1
1
1
1
1
1
1
1
1e-10
1e-10
1e-10
1e-10
1e-10
1e-10
1e-10
1e-10
1e-10
1e-10
1e-10
1e-10
1e-10
1e-10
1e-10
1e-10
1e-10
1e-10
1e-10
1e-10
1e-10
1e-10
1e-10
1e-10
1
1
1
1
1
1
1
1
1
1
1
1
1
1
1
1
1
1e-10
1e-10
1e-10
1e-10
1e-10
1e-10
1e-10
1e-10
1e-10
1e-10
1e-10
1e-10
1e-10
1e-10
1e-10
1e-10
1e-10
1e-10
1e-10
1e-10
1e-10
1e-10
1
1
1
1
1
1
1
1
1
1
1
1
1
1
1
1
1
1
1
1e-10
1e-10
1e-10
1e-10
1e-10
1e-10
1e-10
1e-10
1e-10
1e-10
1e-10
1e-10
1e-10
1e-10
1e-10
1e-10
1e-10
1e-10
1e-10
1e-10
1
1
1
1
1
1
1
1
1
1
1
1
1
1
1
1
1
1
1
1
1
1e-10
1e-10
1e-10
1e-10
1e-10
1e-10
1e-10
1e-10
1e-10
1e-10
1e-10
1e-10
1e-10
1e-10
1e-10
1e-10
1e-10
1e-10
1
1
1
1
1
1
1
1
1
1
1
1
1
1
1
1e-10
1
1
1
1
1
1
1
1e-10
1e-10
1e-10
1e-10
1e-10
1e-10
1e-10
1e-10
1e-10
1e-10
1e-10
1e-10
1e-10
1e-10
1e-10
1e-10
1
1
1
1
1
1
1
1e-10
1
1
1
1
1
1
1
1
1e-10
1e-10
1
1
1
1
1
1
1e-10
1e-10
1e-10
1e-10
1e-10
1e-10
1e-10
1e-10
1e-10
1e-10
1e-10
1e-10
1e-10
1e-10
1e-10
1e-10
1
1
1
1
1
1
1e-10
1e-10
1
1
1
1
1
1
1
1
1e-10
1e-10
1
1
1
1
1
1
1
1e-10
1e-10
1e-10
1e-10
1e-10
1e-10
1e-10
1e-10
1e-10
1e-10
1e-10
1e-10
1e-10
1e-10
1
1
1
1
1
1
1
1e-10
1e-10
1
1
1
1
1
1
1
1
1e-10
1e-10
1e-10
1
1
1
1
1
1
0.990317
1e-10
1e-10
1e-10
1e-10
1e-10
1e-10
1e-10
1e-10
1e-10
1e-10
1e-10
1e-10
0.990306
1
1
1
1
1
1
1e-10
1e-10
1e-10
1
1
1
1
1
1
1
1
1e-10
1e-10
1e-10
1e-10
1
1
1
1
1
1
1e-10
1e-10
1e-10
1e-10
1e-10
1e-10
1e-10
1e-10
1e-10
1e-10
1e-10
1e-10
1
1
1
1
1
1
1e-10
1e-10
1e-10
1e-10
1
1
1
1
1
1
1
1
1e-10
1e-10
1e-10
1e-10
1
1
1
1
1
1
1
1e-10
1e-10
1e-10
1e-10
1e-10
1e-10
1e-10
1e-10
1e-10
1e-10
1
1
1
1
1
1
1
1e-10
1e-10
1e-10
1e-10
1
1
1
1
1
1
1
1
1e-10
1e-10
1e-10
1e-10
1e-10
1
1
1
1
1
1
1
1e-10
1e-10
1e-10
1e-10
1e-10
1e-10
1e-10
1e-10
1
1
1
1
1
1
1
1e-10
1e-10
1e-10
1e-10
1e-10
1
1
1
1
1
1
1
1
1e-10
1e-10
1e-10
1e-10
1e-10
1
1
1
1
1
1
1
1
1e-10
1e-10
1e-10
1e-10
1e-10
1e-10
1
1
1
1
1
1
1
1
1e-10
1e-10
1e-10
1e-10
1e-10
1
1
1
1
1
1
1
1
1e-10
1e-10
1e-10
1e-10
1e-10
1e-10
1
1
1
1
1
1
1
1
1e-10
1e-10
1e-10
1e-10
1
1
1
1
1
1
1
1
1e-10
1e-10
1e-10
1e-10
1e-10
1e-10
1
1
1
1
1
1
1
1
1e-10
1e-10
1e-10
1e-10
1e-10
1e-10
1e-10
1
1
1
1
1
1
1
1
1e-10
1e-10
1
1
1
1
1
1
1
1
1e-10
1e-10
1e-10
1e-10
1e-10
1e-10
1e-10
1
1
1
1
1
1
1
1
1
1e-10
1e-10
1e-10
1e-10
1e-10
1e-10
1
1
1
1
1
1
1
1
1
1
1
1
1
1
1
1
1
1
1e-10
1e-10
1e-10
1e-10
1e-10
1e-10
1
1
1
1
1
1
1
1
1
1
1e-10
1e-10
1e-10
1e-10
1e-10
1e-10
1
1
1
1
1
1
1
1
1
1
1
1
1
1
1
1
1
1
1e-10
1e-10
1e-10
1e-10
1e-10
1e-10
1
1
1
1
1
1
1
1
1
1
1e-10
1e-10
1e-10
1e-10
1e-10
1e-10
1e-10
1
1
1
1
1
1
1
1
1
1
1
1
1
1
1
1
1e-10
1e-10
1e-10
1e-10
1e-10
1e-10
1e-10
1
1
1
1
1
1
1
1
1
1
1e-10
1e-10
1e-10
1e-10
1e-10
1e-10
1e-10
1
1
1
1
1
1
1
1
1
1
1
1
1
1
1
1
1e-10
1e-10
1e-10
1e-10
1e-10
1e-10
1e-10
1
1
1
1
1
1
1
1
1
1
1e-10
1e-10
1e-10
1e-10
1e-10
1e-10
1e-10
1
1
1
1
1
1
1
1
1
1
1
1
1
1
1
1
1e-10
1e-10
1e-10
1e-10
1e-10
1e-10
1e-10
1
1
1
1
1
1
1
1
1
1
1e-10
1e-10
1e-10
1e-10
1e-10
1e-10
1e-10
1
1
1
1
1
1
1
1
1
1
1
1
1
1
1
1
1e-10
1e-10
1e-10
1e-10
1e-10
1e-10
1e-10
1
1
1
1
1
1
1
1
1
1
0.168587
1e-10
1e-10
1e-10
1e-10
1e-10
1e-10
1e-10
1
1
1
1
1
1
1
1
1
1
1
1
1
1
1e-10
1e-10
1e-10
1e-10
1e-10
1e-10
1e-10
0.19756
1
1
1
1
1
1
1
1
1
1
1
1e-10
1e-10
1e-10
1e-10
1e-10
1e-10
1e-10
1
1
1
1
1
1
1
1
1
1
1
1
1
1
1e-10
1e-10
1e-10
1e-10
1e-10
1e-10
1e-10
1
1
1
1
1
1
1
1
1
1
1
1
1e-10
1e-10
1e-10
1e-10
1e-10
1e-10
1
1
1
1
1
1
1
1
1
1
1
1
1
1
1
1
1e-10
1e-10
1e-10
1e-10
1e-10
1e-10
1
1
1
1
1
1
1
1
1
1
1
1
1e-10
1e-10
1e-10
0.970105
1
1
1
1
1
1
1
1
1
1
1
1
1
1
1
1
1
1
1
1
0.970037
1e-10
1e-10
1e-10
1
1
1
1
1
1
1
1
1
1
1
1
1
1
1
1
1
1
1
1
1
1
1
1
1
1
1
1
1
1
1
1
1
1
1
1
1
1
1
1
1
1
1
1
1
1
1
1
1
1
1
1
1
1
1
1
1
1
0.763213
0.687669
0.885037
0.501953
0.771656
1
1
1
1
1
1
0.771774
0.501663
0.885006
0.687451
0.762917
1
1
1
1
1
1
1
1
1
1
1
1
1
1
1
1
1
1
1
1
1
0.94267
0.460884
0.00246031
1e-10
1e-10
0.884505
0.921456
0.987963
1
1
1
1
1
1
0.987908
0.921511
0.884517
1e-10
1e-10
0.00243417
0.460672
0.94262
1
1
1
1
1
1
1
1
1
1
1
1
1
1
1
1
1
0.770288
0.00246446
1e-10
1e-10
1e-10
0.933308
1
1
1
1
1
1.00412e-08
9.87008e-09
1
1
1
1
1
0.933451
1e-10
1e-10
1e-10
0.00244862
0.770264
1
1
1
1
1
1
1
1
1
1
1
1
1
1
1
0.889145
0.00190149
1e-10
1e-10
1e-10
1
1
1
1
1
5.49239e-06
4.34232e-07
4.0989e-08
4.14026e-08
4.31462e-07
5.52212e-06
1
1
1
1
1
1e-10
1e-10
1e-10
0.00190643
0.889371
1
1
1
1
1
1
1
1e-10
1
1
1
1
1
1
1
0.138533
1e-10
0.612324
1
1
1
1
0.929888
0.571946
0.0795335
6.65441e-07
8.75755e-08
8.70842e-08
6.71953e-07
0.0793105
0.57177
0.929947
1
1
1
1
0.612472
1e-10
0.13908
1
1
1
1
1
1
1
1e-10
1e-10
1
1
1
1
1
1
1
0.186677
0.868454
1
1
1
9.60538e-06
0.000295194
0.953758
1
0.308876
0.0243567
2.44574e-07
2.46184e-07
0.0242742
0.308677
1
0.953679
0.000285955
9.44047e-06
1
1
1
0.868442
0.187877
1
1
1
1
1
1
1
1e-10
1e-10
1
1
1
1
1
1
1
1
1
1
0.857562
1e-10
1e-10
4.09108e-05
0.0142484
1
1
0.0943788
0.0129198
0.0128912
0.0942371
1
1
0.0141805
3.97816e-05
1e-10
1e-10
0.857727
1
1
1
1
1
1
1
1
1
1
1e-10
1e-10
1e-10
1
1
1
1
1
1
1
1
0.697673
1e-10
1e-10
1e-10
1e-10
8.17479e-05
0.0981989
0.988559
1
0.0932961
0.0932806
1
0.988573
0.0979662
8.03498e-05
1e-10
1e-10
1e-10
1e-10
0.697907
1
1
1
1
1
1
1
1
1e-10
1e-10
1e-10
1e-10
1
1
1
1
1
1
1
1e-10
1e-10
1e-10
1e-10
1e-10
1e-10
1e-10
0.00300653
0.324304
0.945599
0.830884
0.830931
0.945713
0.323982
0.0029755
1e-10
1e-10
1e-10
1e-10
1e-10
1e-10
1e-10
1
1
1
1
1
1
1
1e-10
1e-10
1e-10
1e-10
1e-10
1
1
1
1
1
1
1e-10
1e-10
1e-10
1e-10
1e-10
1e-10
1e-10
1e-10
0.0286011
0.510968
1
1
0.510604
0.0284862
1e-10
1e-10
1e-10
1e-10
1e-10
1e-10
1e-10
1e-10
1
1
1
1
1
1
1e-10
1e-10
1e-10
1e-10
1e-10
1e-10
1
1
1
1
1
1
1e-10
1e-10
1e-10
1e-10
1e-10
1e-10
1e-10
1e-10
0.0025211
0.956672
1
1
0.956845
0.00251545
1e-10
1e-10
1e-10
1e-10
1e-10
1e-10
1e-10
1e-10
1
1
1
1
1
1
1e-10
1e-10
1e-10
1e-10
1e-10
1e-10
1e-10
1
1
1
1
1
1
1e-10
1e-10
1e-10
1e-10
1e-10
1e-10
5.22617e-06
0.872228
0.972402
0.439172
0.439067
0.972446
0.872018
5.22116e-06
1e-10
1e-10
1e-10
1e-10
1e-10
1e-10
1
1
1
1
1
1
1e-10
1e-10
1e-10
1e-10
1e-10
1e-10
1e-10
1e-10
1
1
1
1
1
1
1e-10
1e-10
1e-10
1e-10
1e-10
3.64754e-05
1
1
0.259517
4.91786e-08
4.92573e-08
0.259127
1
1
3.65437e-05
1e-10
1e-10
1e-10
1e-10
1e-10
1
1
1
1
1
1
1e-10
1e-10
1e-10
1e-10
1e-10
1e-10
1e-10
1e-10
1e-10
1
1
1
1
1
1
1
1e-10
1e-10
0.720124
0.923811
0.936142
0.0116995
1e-10
1e-10
1e-10
1e-10
0.0115977
0.936001
0.923773
0.720258
1e-10
1e-10
1
1
1
1
1
1
1
1e-10
1e-10
1e-10
1e-10
1e-10
1e-10
1e-10
1e-10
1e-10
1e-10
1e-10
1
1
1
1
1
1e-10
1
0.9031
0.49869
1
1.29755e-05
1e-10
1e-10
1e-10
1e-10
1e-10
1e-10
1.27214e-05
1
0.498298
0.903085
1
1e-10
1
1
1
1
1
1e-10
1e-10
1e-10
1e-10
1e-10
1e-10
1e-10
1e-10
1e-10
1e-10
1e-10
1e-10
1
1
1
1
1
1
1
1e-10
1
1e-10
1e-10
1e-10
1e-10
1e-10
1e-10
1e-10
1e-10
1e-10
1e-10
1
1e-10
1
1
1
1
1
1
1
1e-10
1e-10
1e-10
1e-10
1e-10
1e-10
1e-10
1e-10
1e-10
1e-10
1e-10
1e-10
1e-10
1
1
1
1
1
1
1
1e-10
1e-10
1e-10
1e-10
1e-10
1e-10
1e-10
1e-10
1e-10
1e-10
1e-10
1e-10
1
1
1
1
1
1
1
1e-10
1e-10
1e-10
1e-10
1e-10
1e-10
1e-10
1e-10
1e-10
1e-10
1e-10
1e-10
1e-10
1e-10
1e-10
1
1
1
1
1
1
0.779496
1e-10
1e-10
1e-10
1e-10
1e-10
1e-10
1e-10
1e-10
1e-10
1e-10
0.7795
1
1
1
1
1
1
1e-10
1e-10
1e-10
1e-10
1e-10
1e-10
1e-10
1e-10
1e-10
1e-10
1e-10
1e-10
1e-10
1e-10
1e-10
1e-10
1
1
1
1
1
1
1
1e-10
1e-10
1e-10
1e-10
1e-10
1e-10
1e-10
1e-10
1e-10
1e-10
1
1
1
1
1
1
1
1e-10
1e-10
1e-10
1e-10
1e-10
1e-10
1e-10
1e-10
1e-10
1e-10
1e-10
1e-10
1e-10
1e-10
1e-10
1e-10
1e-10
1
1
1
1
1
1
1
1e-10
1e-10
1e-10
1e-10
1e-10
1e-10
1e-10
1e-10
1
1
1
1
1
1
1
1e-10
1e-10
1e-10
1e-10
1e-10
1e-10
1e-10
1e-10
1e-10
1e-10
1e-10
1e-10
1e-10
1e-10
1e-10
1e-10
1e-10
1e-10
1e-10
1
1
1
1
1
1
1
1e-10
1e-10
1e-10
1e-10
1e-10
1e-10
1
1
1
1
1
1
1
1e-10
1e-10
1e-10
1e-10
1e-10
1e-10
1e-10
1e-10
1e-10
1e-10
1e-10
1e-10
1e-10
1e-10
1e-10
1e-10
1e-10
1e-10
1e-10
1e-10
1
1
1
1
1
1
1
1e-10
1e-10
1e-10
1e-10
1e-10
1e-10
1
1
1
1
1
1
1
1e-10
1e-10
1e-10
1e-10
1e-10
1e-10
1e-10
1e-10
1e-10
1e-10
1e-10
1e-10
1e-10
1e-10
1e-10
1e-10
1e-10
1e-10
1e-10
1e-10
1e-10
1
1
1
1
1
1e-10
1
1e-10
1e-10
1e-10
1e-10
1
1e-10
1
1
1
1
1
1e-10
1e-10
1e-10
1e-10
1e-10
1e-10
1e-10
1e-10
1e-10
1e-10
1e-10
1e-10
1e-10
1e-10
1e-10
1e-10
1e-10
1e-10
1e-10
1e-10
1e-10
1e-10
1e-10
1
1
1
1
1
1
1
1e-10
1e-10
1
1
1
1
1
1
1
1e-10
1e-10
1e-10
1e-10
1e-10
1e-10
1e-10
1e-10
1e-10
1e-10
1e-10
1e-10
1e-10
1e-10
1e-10
1e-10
1e-10
1e-10
1e-10
1e-10
1e-10
1e-10
1e-10
1e-10
1e-10
1
1
1
1
1
1
1
1
1
1
1
1
1
1
1e-10
1e-10
1e-10
1e-10
1e-10
1e-10
1e-10
1e-10
1e-10
1e-10
1e-10
1e-10
1e-10
1e-10
1e-10
1e-10
1e-10
1e-10
1e-10
1e-10
1e-10
1e-10
1e-10
1e-10
1e-10
1e-10
1e-10
1
1
1
1
1
1
1
1
1
1
1
1
1e-10
1e-10
1e-10
1e-10
1e-10
1e-10
1e-10
1e-10
1e-10
1e-10
1e-10
1e-10
1e-10
1e-10
1e-10
1e-10
1e-10
1e-10
1e-10
1e-10
1e-10
1e-10
1e-10
1e-10
1e-10
1e-10
1e-10
1e-10
1
1
1
1
1
1
1
1
1
1
1
1
1e-10
1e-10
1e-10
1e-10
1e-10
1e-10
1e-10
1e-10
1e-10
1e-10
1e-10
1e-10
1e-10
1e-10
1e-10
1e-10
1e-10
1e-10
1e-10
1e-10
1e-10
1e-10
1e-10
1e-10
1e-10
1e-10
1e-10
1e-10
1e-10
1
1
1
1
1
1
1
1
1
1
1e-10
1e-10
1e-10
1e-10
1e-10
1e-10
1e-10
1e-10
1e-10
1e-10
1e-10
1e-10
1e-10
1e-10
1e-10
1e-10
1e-10
1e-10
1e-10
1e-10
1e-10
1e-10
1e-10
1e-10
1e-10
1e-10
1e-10
1e-10
1e-10
1e-10
1e-10
1
1
1
1
1
1
1
1
1e-10
1e-10
1e-10
1e-10
1e-10
1e-10
1e-10
1e-10
1e-10
1e-10
1e-10
1e-10
1e-10
1e-10
1e-10
1e-10
1e-10
1e-10
1e-10
1e-10
1e-10
1e-10
1e-10
1e-10
1e-10
1e-10
1e-10
1e-10
1e-10
1e-10
1e-10
1e-10
1e-10
1
1
1
1
1
1
1e-10
1e-10
1e-10
1e-10
1e-10
1e-10
1e-10
1e-10
1e-10
1e-10
1e-10
1e-10
1e-10
1e-10
1e-10
1e-10
1e-10


POINT_DATA	7401
VECTORS u0 float
0	0	0
0	0	0
0	0	0
0	0	0
0	0	0
0	0	0
0	0	0
0	0	0
0	0	0
0	0	0
0	0	0
0	0	0
0	0	0
0	0	0
0	0	0
0	0	0
0	0	0
0	0	0
0	0	0
0	0	0
0	0	0
0	0	0
0	0	0
0	0	0
0	0	0
0	0	0
0	0	0
0	0	0
0	0	0
0	0	0
0	0	0
0	0	0
0	0	0
0	0	0
0	0	0
0	0	0
0	0	0
0	0	0
0	0	0
0	0	0
0	0	0
-0.00232498	-0.0013176	0
-0.00151324	-0.00105428	0
-0.00115756	-0.000901349	0
-0.000940733	-0.000815241	0
-0.000709493	-0.000717838	0
-0.00023372	-0.000606027	0
-0.000570991	-0.000744932	0
-0.000574155	-0.00081786	0
-0.000557784	-0.000820711	0
-0.000514409	-0.000798006	0
-0.000459601	-0.00077433	0
-0.000404977	-0.00075002	0
-0.000352577	-0.000726537	0
-0.000302876	-0.000704705	0
-0.000255705	-0.000684992	0
-0.000210606	-0.000667779	0
-0.000167059	-0.000653308	0
-0.000124579	-0.000641787	0
-8.27669e-05	-0.0006334	0
-4.13303e-05	-0.000628301	0
-5.87193e-08	-0.00062659	0
4.12127e-05	-0.000628301	0
8.26489e-05	-0.000633399	0
0.00012446	-0.000641785	0
0.000166941	-0.000653308	0
0.000210489	-0.000667779	0
0.000255589	-0.000684995	0
0.000302761	-0.00070471	0
0.000352463	-0.000726546	0
0.000404864	-0.000750033	0
0.000459489	-0.000774345	0
0.000514297	-0.000798023	0
0.000557673	-0.000820727	0
0.000574047	-0.000817875	0
0.000570886	-0.000744942	0
0.000233668	-0.000606036	0
0.000709462	-0.00071784	0
0.000940724	-0.000815241	0
0.00115757	-0.000901351	0
0.00151327	-0.00105429	0
0.00232503	-0.00131762	0
-0.0031217	-0.00254485	0
-0.00226308	-0.00218323	0
-0.00175447	-0.00192224	0
-0.00142083	-0.00177166	0
-0.00113295	-0.00169822	0
-0.000843697	-0.00171001	0
-0.00081064	-0.00181865	0
-0.000871218	-0.00167515	0
-0.000844811	-0.00162947	0
-0.000774094	-0.00158869	0
-0.000694851	-0.00153898	0
-0.000613761	-0.00148812	0
-0.000535969	-0.00143791	0
-0.000461415	-0.00139155	0
-0.000390212	-0.00135034	0
-0.000321872	-0.00131479	0
-0.000255662	-0.00128524	0
-0.000190866	-0.00126193	0
-0.000126913	-0.0012451	0
-6.34058e-05	-0.00123491	0
-8.57751e-08	-0.0012315	0
6.32341e-05	-0.00123491	0
0.000126741	-0.00124509	0
0.000190694	-0.00126193	0
0.000255492	-0.00128524	0
0.000321703	-0.00131479	0
0.000390045	-0.00135035	0
0.000461251	-0.00139157	0
0.000535806	-0.00143793	0
0.000613599	-0.00148816	0
0.000694688	-0.00153901	0
0.000773931	-0.00158873	0
0.000844648	-0.00162951	0
0.000871058	-0.00167519	0
0.000810454	-0.00181867	0
0.000843601	-0.00171004	0
0.00113291	-0.00169824	0
0.00142082	-0.00177168	0
0.00175449	-0.00192227	0
0.00226313	-0.00218326	0
0.00312178	-0.0025449	0
-0.00390285	-0.00354037	0
-0.00305614	-0.00323293	0
-0.00243263	-0.00297571	0
-0.00197417	-0.0028055	0
-0.00161711	-0.00270481	0
-0.00133232	-0.00258862	0
-0.000824945	-0.00250621	0
-0.00124983	-0.0025838	0
-0.00120086	-0.00256673	0
-0.0010947	-0.00250268	0
-0.000987241	-0.00240937	0
-0.000876357	-0.00231696	0
-0.000766119	-0.00223062	0
-0.000660341	-0.00215287	0
-0.000558925	-0.00208518	0
-0.000461442	-0.00202776	0
-0.000366844	-0.00198056	0
-0.000274077	-0.00194367	0
-0.000182343	-0.0019172	0
-9.11264e-05	-0.00190126	0
-1.16365e-07	-0.00189594	0
9.08939e-05	-0.00190126	0
0.000182111	-0.0019172	0
0.000273846	-0.00194367	0
0.000366616	-0.00198057	0
0.000461217	-0.00202778	0
0.000558705	-0.00208521	0
0.000660124	-0.0021529	0
0.000765904	-0.00223067	0
0.000876141	-0.00231702	0
0.000987023	-0.00240944	0
0.00109447	-0.00250276	0
0.00120064	-0.00256681	0
0.00124961	-0.00258387	0
0.000824756	-0.00250629	0
0.00133219	-0.00258869	0
0.00161705	-0.00270488	0
0.00197416	-0.00280557	0
0.00243266	-0.00297577	0
0.00305621	-0.003233	0
0.00390296	-0.00354045	0
-0.00458238	-0.00447634	0
-0.00374143	-0.00420018	0
-0.00304863	-0.00396291	0
-0.00249634	-0.00380214	0
-0.00206914	-0.00372022	0
-0.00174353	-0.00372791	0
-0.0014721	-0.00386384	0
-0.00170899	-0.00411049	0
-0.00160803	-0.00369809	0
-0.00146469	-0.00350948	0
-0.00131332	-0.00335816	0
-0.00116559	-0.00320228	0
-0.00101891	-0.00306866	0
-0.000876876	-0.00295356	0
-0.000742011	-0.00285564	0
-0.000612712	-0.00277384	0
-0.000487303	-0.00270739	0
-0.000364219	-0.00265588	0
-0.000242381	-0.00261917	0
-0.000121145	-0.00259718	0
-1.44394e-07	-0.00258985	0
0.000120857	-0.00259718	0
0.000242095	-0.00261917	0
0.000363936	-0.00265589	0
0.000487025	-0.00270741	0
0.00061244	-0.00277387	0
0.000741744	-0.00285569	0
0.000876614	-0.00295362	0
0.00101865	-0.00306874	0
0.00116533	-0.00320237	0
0.00131306	-0.00335827	0
0.00146441	-0.00350961	0
0.00160774	-0.00369822	0
0.0017087	-0.00411062	0
0.00147189	-0.00386397	0
0.00174339	-0.00372803	0
0.00206906	-0.00372033	0
0.00249633	-0.00380225	0
0.00304867	-0.00396302	0
0.00374153	-0.0042003	0
0.00458252	-0.00447646	0
-0.00520797	-0.00536537	0
-0.0043681	-0.00510686	0
-0.00361582	-0.00488574	0
-0.00297716	-0.00473436	0
-0.00246598	-0.00466745	0
-0.00209328	-0.00466182	0
-0.00193445	-0.00468938	0
-0.00194762	-0.00485886	0
-0.00206223	-0.00507052	0
-0.00191491	-0.00462524	0
-0.00170114	-0.00434802	0
-0.0014966	-0.00413713	0
-0.00130174	-0.00394461	0
-0.00111753	-0.00378784	0
-0.000943898	-0.0036575	0
-0.000779198	-0.00354992	0
-0.000619718	-0.00346335	0
-0.000463194	-0.00339685	0
-0.000308234	-0.00334979	0
-0.000154045	-0.00332174	0
-1.69282e-07	-0.00331242	0
0.000153708	-0.00332175	0
0.0003079	-0.00334981	0
0.000462867	-0.00339688	0
0.000619398	-0.00346338	0
0.000778887	-0.00354998	0
0.000943594	-0.00365758	0
0.00111723	-0.00378794	0
0.00130144	-0.00394474	0
0.0014963	-0.00413728	0
0.00170083	-0.00434819	0
0.00191459	-0.00462542	0
0.00206188	-0.00507073	0
0.00194733	-0.00485907	0
0.00193423	-0.00468957	0
0.00209312	-0.004662	0
0.00246589	-0.00466762	0
0.00297714	-0.00473453	0
0.00361587	-0.0048859	0
0.00436822	-0.00510703	0
0.00520814	-0.00536556	0
-0.00581579	-0.00622487	0
-0.00496013	-0.00597081	0
-0.00414539	-0.00575267	0
-0.00341956	-0.00559763	0
-0.00282856	-0.00551841	0
-0.00242189	-0.00549871	0
-0.00223196	-0.00550037	0
-0.00221812	-0.00554409	0
-0.00226508	-0.00569815	0
-0.00238852	-0.00587693	0
-0.0021564	-0.00538681	0
-0.00187517	-0.0050726	0
-0.00161578	-0.00483955	0
-0.00138011	-0.00463796	0
-0.00116421	-0.00447573	0
-0.000960298	-0.00434293	0
-0.00076353	-0.00423702	0
-0.000570464	-0.00415641	0
-0.000379474	-0.00409982	0
-0.000189592	-0.00406624	0
-1.89725e-07	-0.00405512	0
0.000189215	-0.00406626	0
0.000379101	-0.00409984	0
0.0005701	-0.00415645	0
0.000763178	-0.00423708	0
0.000959957	-0.00434302	0
0.00116388	-0.00447584	0
0.00137979	-0.0046381	0
0.00161545	-0.00483973	0
0.00187484	-0.00507281	0
0.00215605	-0.00538705	0
0.00238814	-0.0058772	0
0.00226473	-0.00569842	0
0.00221782	-0.00554436	0
0.00223171	-0.00550062	0
0.00242171	-0.00549896	0
0.00282846	-0.00551865	0
0.00341954	-0.00559786	0
0.00414545	-0.0057529	0
0.00496026	-0.00597105	0
0.005816	-0.00622513	0
-0.00643492	-0.00708836	0
-0.00553948	-0.00682934	0
-0.00465633	-0.0065997	0
-0.00383497	-0.00642098	0
-0.00314886	-0.00631976	0
-0.00270309	-0.00628646	0
-0.00250721	-0.00626222	0
-0.00246684	-0.00624146	0
-0.00250382	-0.00625897	0
-0.00255469	-0.00637142	0
-0.00264155	-0.00650839	0
-0.00230331	-0.00602281	0
-0.00195621	-0.00571367	0
-0.0016614	-0.00548929	0
-0.00139995	-0.00529543	0
-0.0011546	-0.0051406	0
-0.000917225	-0.00501847	0
-0.000684761	-0.00492652	0
-0.000455211	-0.0048624	0
-0.000227332	-0.00482452	0
-2.04954e-07	-0.004812	0
0.000226924	-0.00482454	0
0.00045481	-0.00486243	0
0.000684371	-0.00492658	0
0.00091685	-0.00501856	0
0.00115424	-0.00514072	0
0.00139961	-0.00529559	0
0.00166106	-0.00548949	0
0.00195587	-0.00571391	0
0.00230296	-0.00602309	0
0.00264117	-0.00650871	0
0.00255431	-0.00637175	0
0.00250347	-0.00625929	0
0.00246653	-0.00624177	0
0.00250696	-0.00626254	0
0.00270289	-0.00628677	0
0.00314875	-0.00632006	0
0.00383495	-0.00642128	0
0.0046564	-0.00660001	0
0.00553963	-0.00682967	0
0.00643517	-0.0070887	0
-0.00707805	-0.00800014	0
-0.00611966	-0.00773401	0
-0.00516883	-0.00748541	0
-0.0042498	-0.00725746	0
-0.00340537	-0.00709615	0
-0.00292758	-0.00703792	0
-0.00278525	-0.00696409	0
-0.00274139	-0.00688251	0
-0.00273786	-0.00683664	0
-0.00275914	-0.00683573	0
-0.00276589	-0.00691295	0
-0.00276225	-0.00700888	0
-0.00231653	-0.00657686	0
-0.00195433	-0.00630585	0
-0.0016474	-0.00610085	0
-0.00135791	-0.00592906	0
-0.00107724	-0.005798	0
-0.000803473	-0.00569976	0
-0.000533787	-0.00563141	0
-0.000266451	-0.00559111	0
-2.14622e-07	-0.0055778	0
0.000266025	-0.00559113	0
0.00053337	-0.00563146	0
0.000803069	-0.00569984	0
0.00107686	-0.00579812	0
0.00135754	-0.00592921	0
0.00164704	-0.00610105	0
0.00195398	-0.0063061	0
0.00231618	-0.00657715	0
0.00276188	-0.00700924	0
0.00276551	-0.0069133	0
0.00275877	-0.00683607	0
0.00273751	-0.00683699	0
0.00274107	-0.00688286	0
0.00278498	-0.00696445	0
0.00292738	-0.00703828	0
0.00340525	-0.00709653	0
0.00424978	-0.00725785	0
0.00516891	-0.00748582	0
0.00611984	-0.00773443	0
0.00707834	-0.00800058	0
-0.00773442	-0.00899869	0
-0.00670032	-0.00873277	0
-0.00569051	-0.00848177	0
-0.00469362	-0.00823392	0
-0.00362805	-0.00796759	0
-0.00310646	-0.00761719	0
-0.00307443	-0.00753901	0
-0.00303939	-0.00744707	0
-0.002993	-0.00738891	0
-0.00296863	-0.00735282	0
-0.00293418	-0.00733831	0
-0.00284571	-0.00737134	0
-0.00265835	-0.00740987	0
-0.00225219	-0.00708481	0
-0.00189945	-0.00686246	0
-0.00156098	-0.00669855	0
-0.00123789	-0.00656914	0
-0.000922891	-0.00647153	0
-0.000612955	-0.00640301	0
-0.000305854	-0.0063626	0
-2.1877e-07	-0.00634927	0
0.00030542	-0.00636263	0
0.000612531	-0.00640307	0
0.000922482	-0.00647163	0
0.0012375	-0.00656928	0
0.00156061	-0.00669874	0
0.0018991	-0.00686269	0
0.00225184	-0.0070851	0
0.00265799	-0.00741023	0
0.00284533	-0.00737169	0