# vtk DataFile Version 4.1
vtk output
ASCII
DATASET UNSTRUCTURED_GRID

POINTS	55	float
0	0	0.0	
0	0.5	0.0	
0	1	0.0	
0	1.5	0.0	
0	2	0.0	
5	0	0.0	
5	0.5	0.0	
5	1	0.0	
5	1.5	0.0	
5	2	0.0	
10	0	0.0	
10	0.5	0.0	
10	1	0.0	
10	1.5	0.0	
10	2	0.0	
15	0	0.0	
15	0.5	0.0	
15	1	0.0	
15	1.5	0.0	
15	2	0.0	
20	0	0.0	
20	0.5	0.0	
20	1	0.0	
20	1.5	0.0	
20	2	0.0	
25	0	0.0	
25	0.5	0.0	
25	1	0.0	
25	1.5	0.0	
25	2	0.0	
30	0	0.0	
30	0.5	0.0	
30	1	0.0	
30	1.5	0.0	
30	2	0.0	
35	0	0.0	
35	0.5	0.0	
35	1	0.0	
35	1.5	0.0	
35	2	0.0	
40	0	0.0	
40	0.5	0.0	
40	1	0.0	
40	1.5	0.0	
40	2	0.0	
45	0	0.0	
45	0.5	0.0	
45	1	0.0	
45	1.5	0.0	
45	2	0.0	
50	0	0.0	
50	0.5	0.0	
50	1	0.0	
50	1.5	0.0	
50	2	0.0	

CELLS 40	200
4	0	5	6	1	
4	1	6	7	2	
4	2	7	8	3	
4	3	8	9	4	
4	5	10	11	6	
4	6	11	12	7	
4	7	12	13	8	
4	8	13	14	9	
4	10	15	16	11	
4	11	16	17	12	
4	12	17	18	13	
4	13	18	19	14	
4	15	20	21	16	
4	16	21	22	17	
4	17	22	23	18	
4	18	23	24	19	
4	20	25	26	21	
4	21	26	27	22	
4	22	27	28	23	
4	23	28	29	24	
4	25	30	31	26	
4	26	31	32	27	
4	27	32	33	28	
4	28	33	34	29	
4	30	35	36	31	
4	31	36	37	32	
4	32	37	38	33	
4	33	38	39	34	
4	35	40	41	36	
4	36	41	42	37	
4	37	42	43	38	
4	38	43	44	39	
4	40	45	46	41	
4	41	46	47	42	
4	42	47	48	43	
4	43	48	49	44	
4	45	50	51	46	
4	46	51	52	47	
4	47	52	53	48	
4	48	53	54	49	

CELL_TYPES	40
9
9
9
9
9
9
9
9
9
9
9
9
9
9
9
9
9
9
9
9
9
9
9
9
9
9
9
9
9
9
9
9
9
9
9
9
9
9
9
9

POINT_DATA	55
VECTORS u float
0	0	100
0	0.00073125	150
0	0.001755	200
0	0.00307125	250
0	0.00468	300
0.0102818	-0.00354546	100
0.0109909	-0.0028142	150
0.0117	-0.00179045	200
0.0124091	-0.000474205	250
0.0131182	0.00113454	300
0.0205636	-0.0141818	100
0.0219818	-0.0134506	150
0.0234	-0.0124268	200
0.0248182	-0.0111106	250
0.0262364	-0.00950182	300
0.0308455	-0.0319091	100
0.0329727	-0.0311778	150
0.0351	-0.0301541	200
0.0372273	-0.0288378	250
0.0393545	-0.0272291	300
0.0411273	-0.0567273	100
0.0439636	-0.055996	150
0.0468	-0.0549723	200
0.0496364	-0.053656	250
0.0524727	-0.0520473	300
0.0514091	-0.0886364	100
0.0549546	-0.0879051	150
0.0585	-0.0868813	200
0.0620454	-0.0855651	250
0.0655909	-0.0839564	300
0.061691	-0.127636	100
0.0659452	-0.126905	150
0.0702	-0.125881	200
0.0744548	-0.124565	250
0.078709	-0.122956	300
0.0719725	-0.173728	100
0.0769374	-0.172996	150
0.0819	-0.171972	200
0.0868626	-0.170656	250
0.0918275	-0.169048	300
0.0822554	-0.226907	100
0.0879231	-0.226177	150
0.0936	-0.225154	200
0.0992769	-0.223837	250
0.104945	-0.222227	300
0.092533	-0.287189	100
0.0989352	-0.286456	150
0.1053	-0.28543	200
0.111665	-0.284116	250
0.118067	-0.282509	300
0.102832	-0.354522	100
0.109841	-0.353794	150
0.117	-0.352773	200
0.124159	-0.351454	250
0.131168	-0.349842	300
