# vtk DataFile Version 4.1
vtk output
ASCII
DATASET UNSTRUCTURED_GRID

POINTS	7401	float
0	0	0.0	
0	1	0.0	
0	2	0.0	
0	3	0.0	
0	4	0.0	
0	5	0.0	
0	6	0.0	
0	7	0.0	
0	8	0.0	
0	9	0.0	
0	10	0.0	
0	11	0.0	
0	12	0.0	
0	13	0.0	
0	14	0.0	
0	15	0.0	
0	16	0.0	
0	17	0.0	
0	18	0.0	
0	19	0.0	
0	20	0.0	
0	21	0.0	
0	22	0.0	
0	23	0.0	
0	24	0.0	
0	25	0.0	
0	26	0.0	
0	27	0.0	
0	28	0.0	
0	29	0.0	
0	30	0.0	
0	31	0.0	
0	32	0.0	
0	33	0.0	
0	34	0.0	
0	35	0.0	
0	36	0.0	
0	37	0.0	
0	38	0.0	
0	39	0.0	
0	40	0.0	
1	0	0.0	
1	1	0.0	
1	2	0.0	
1	3	0.0	
1	4	0.0	
1	5	0.0	
1	6	0.0	
1	7	0.0	
1	8	0.0	
1	9	0.0	
1	10	0.0	
1	11	0.0	
1	12	0.0	
1	13	0.0	
1	14	0.0	
1	15	0.0	
1	16	0.0	
1	17	0.0	
1	18	0.0	
1	19	0.0	
1	20	0.0	
1	21	0.0	
1	22	0.0	
1	23	0.0	
1	24	0.0	
1	25	0.0	
1	26	0.0	
1	27	0.0	
1	28	0.0	
1	29	0.0	
1	30	0.0	
1	31	0.0	
1	32	0.0	
1	33	0.0	
1	34	0.0	
1	35	0.0	
1	36	0.0	
1	37	0.0	
1	38	0.0	
1	39	0.0	
1	40	0.0	
2	0	0.0	
2	1	0.0	
2	2	0.0	
2	3	0.0	
2	4	0.0	
2	5	0.0	
2	6	0.0	
2	7	0.0	
2	8	0.0	
2	9	0.0	
2	10	0.0	
2	11	0.0	
2	12	0.0	
2	13	0.0	
2	14	0.0	
2	15	0.0	
2	16	0.0	
2	17	0.0	
2	18	0.0	
2	19	0.0	
2	20	0.0	
2	21	0.0	
2	22	0.0	
2	23	0.0	
2	24	0.0	
2	25	0.0	
2	26	0.0	
2	27	0.0	
2	28	0.0	
2	29	0.0	
2	30	0.0	
2	31	0.0	
2	32	0.0	
2	33	0.0	
2	34	0.0	
2	35	0.0	
2	36	0.0	
2	37	0.0	
2	38	0.0	
2	39	0.0	
2	40	0.0	
3	0	0.0	
3	1	0.0	
3	2	0.0	
3	3	0.0	
3	4	0.0	
3	5	0.0	
3	6	0.0	
3	7	0.0	
3	8	0.0	
3	9	0.0	
3	10	0.0	
3	11	0.0	
3	12	0.0	
3	13	0.0	
3	14	0.0	
3	15	0.0	
3	16	0.0	
3	17	0.0	
3	18	0.0	
3	19	0.0	
3	20	0.0	
3	21	0.0	
3	22	0.0	
3	23	0.0	
3	24	0.0	
3	25	0.0	
3	26	0.0	
3	27	0.0	
3	28	0.0	
3	29	0.0	
3	30	0.0	
3	31	0.0	
3	32	0.0	
3	33	0.0	
3	34	0.0	
3	35	0.0	
3	36	0.0	
3	37	0.0	
3	38	0.0	
3	39	0.0	
3	40	0.0	
4	0	0.0	
4	1	0.0	
4	2	0.0	
4	3	0.0	
4	4	0.0	
4	5	0.0	
4	6	0.0	
4	7	0.0	
4	8	0.0	
4	9	0.0	
4	10	0.0	
4	11	0.0	
4	12	0.0	
4	13	0.0	
4	14	0.0	
4	15	0.0	
4	16	0.0	
4	17	0.0	
4	18	0.0	
4	19	0.0	
4	20	0.0	
4	21	0.0	
4	22	0.0	
4	23	0.0	
4	24	0.0	
4	25	0.0	
4	26	0.0	
4	27	0.0	
4	28	0.0	
4	29	0.0	
4	30	0.0	
4	31	0.0	
4	32	0.0	
4	33	0.0	
4	34	0.0	
4	35	0.0	
4	36	0.0	
4	37	0.0	
4	38	0.0	
4	39	0.0	
4	40	0.0	
5	0	0.0	
5	1	0.0	
5	2	0.0	
5	3	0.0	
5	4	0.0	
5	5	0.0	
5	6	0.0	
5	7	0.0	
5	8	0.0	
5	9	0.0	
5	10	0.0	
5	11	0.0	
5	12	0.0	
5	13	0.0	
5	14	0.0	
5	15	0.0	
5	16	0.0	
5	17	0.0	
5	18	0.0	
5	19	0.0	
5	20	0.0	
5	21	0.0	
5	22	0.0	
5	23	0.0	
5	24	0.0	
5	25	0.0	
5	26	0.0	
5	27	0.0	
5	28	0.0	
5	29	0.0	
5	30	0.0	
5	31	0.0	
5	32	0.0	
5	33	0.0	
5	34	0.0	
5	35	0.0	
5	36	0.0	
5	37	0.0	
5	38	0.0	
5	39	0.0	
5	40	0.0	
6	0	0.0	
6	1	0.0	
6	2	0.0	
6	3	0.0	
6	4	0.0	
6	5	0.0	
6	6	0.0	
6	7	0.0	
6	8	0.0	
6	9	0.0	
6	10	0.0	
6	11	0.0	
6	12	0.0	
6	13	0.0	
6	14	0.0	
6	15	0.0	
6	16	0.0	
6	17	0.0	
6	18	0.0	
6	19	0.0	
6	20	0.0	
6	21	0.0	
6	22	0.0	
6	23	0.0	
6	24	0.0	
6	25	0.0	
6	26	0.0	
6	27	0.0	
6	28	0.0	
6	29	0.0	
6	30	0.0	
6	31	0.0	
6	32	0.0	
6	33	0.0	
6	34	0.0	
6	35	0.0	
6	36	0.0	
6	37	0.0	
6	38	0.0	
6	39	0.0	
6	40	0.0	
7	0	0.0	
7	1	0.0	
7	2	0.0	
7	3	0.0	
7	4	0.0	
7	5	0.0	
7	6	0.0	
7	7	0.0	
7	8	0.0	
7	9	0.0	
7	10	0.0	
7	11	0.0	
7	12	0.0	
7	13	0.0	
7	14	0.0	
7	15	0.0	
7	16	0.0	
7	17	0.0	
7	18	0.0	
7	19	0.0	
7	20	0.0	
7	21	0.0	
7	22	0.0	
7	23	0.0	
7	24	0.0	
7	25	0.0	
7	26	0.0	
7	27	0.0	
7	28	0.0	
7	29	0.0	
7	30	0.0	
7	31	0.0	
7	32	0.0	
7	33	0.0	
7	34	0.0	
7	35	0.0	
7	36	0.0	
7	37	0.0	
7	38	0.0	
7	39	0.0	
7	40	0.0	
8	0	0.0	
8	1	0.0	
8	2	0.0	
8	3	0.0	
8	4	0.0	
8	5	0.0	
8	6	0.0	
8	7	0.0	
8	8	0.0	
8	9	0.0	
8	10	0.0	
8	11	0.0	
8	12	0.0	
8	13	0.0	
8	14	0.0	
8	15	0.0	
8	16	0.0	
8	17	0.0	
8	18	0.0	
8	19	0.0	
8	20	0.0	
8	21	0.0	
8	22	0.0	
8	23	0.0	
8	24	0.0	
8	25	0.0	
8	26	0.0	
8	27	0.0	
8	28	0.0	
8	29	0.0	
8	30	0.0	
8	31	0.0	
8	32	0.0	
8	33	0.0	
8	34	0.0	
8	35	0.0	
8	36	0.0	
8	37	0.0	
8	38	0.0	
8	39	0.0	
8	40	0.0	
9	0	0.0	
9	1	0.0	
9	2	0.0	
9	3	0.0	
9	4	0.0	
9	5	0.0	
9	6	0.0	
9	7	0.0	
9	8	0.0	
9	9	0.0	
9	10	0.0	
9	11	0.0	
9	12	0.0	
9	13	0.0	
9	14	0.0	
9	15	0.0	
9	16	0.0	
9	17	0.0	
9	18	0.0	
9	19	0.0	
9	20	0.0	
9	21	0.0	
9	22	0.0	
9	23	0.0	
9	24	0.0	
9	25	0.0	
9	26	0.0	
9	27	0.0	
9	28	0.0	
9	29	0.0	
9	30	0.0	
9	31	0.0	
9	32	0.0	
9	33	0.0	
9	34	0.0	
9	35	0.0	
9	36	0.0	
9	37	0.0	
9	38	0.0	
9	39	0.0	
9	40	0.0	
10	0	0.0	
10	1	0.0	
10	2	0.0	
10	3	0.0	
10	4	0.0	
10	5	0.0	
10	6	0.0	
10	7	0.0	
10	8	0.0	
10	9	0.0	
10	10	0.0	
10	11	0.0	
10	12	0.0	
10	13	0.0	
10	14	0.0	
10	15	0.0	
10	16	0.0	
10	17	0.0	
10	18	0.0	
10	19	0.0	
10	20	0.0	
10	21	0.0	
10	22	0.0	
10	23	0.0	
10	24	0.0	
10	25	0.0	
10	26	0.0	
10	27	0.0	
10	28	0.0	
10	29	0.0	
10	30	0.0	
10	31	0.0	
10	32	0.0	
10	33	0.0	
10	34	0.0	
10	35	0.0	
10	36	0.0	
10	37	0.0	
10	38	0.0	
10	39	0.0	
10	40	0.0	
11	0	0.0	
11	1	0.0	
11	2	0.0	
11	3	0.0	
11	4	0.0	
11	5	0.0	
11	6	0.0	
11	7	0.0	
11	8	0.0	
11	9	0.0	
11	10	0.0	
11	11	0.0	
11	12	0.0	
11	13	0.0	
11	14	0.0	
11	15	0.0	
11	16	0.0	
11	17	0.0	
11	18	0.0	
11	19	0.0	
11	20	0.0	
11	21	0.0	
11	22	0.0	
11	23	0.0	
11	24	0.0	
11	25	0.0	
11	26	0.0	
11	27	0.0	
11	28	0.0	
11	29	0.0	
11	30	0.0	
11	31	0.0	
11	32	0.0	
11	33	0.0	
11	34	0.0	
11	35	0.0	
11	36	0.0	
11	37	0.0	
11	38	0.0	
11	39	0.0	
11	40	0.0	
12	0	0.0	
12	1	0.0	
12	2	0.0	
12	3	0.0	
12	4	0.0	
12	5	0.0	
12	6	0.0	
12	7	0.0	
12	8	0.0	
12	9	0.0	
12	10	0.0	
12	11	0.0	
12	12	0.0	
12	13	0.0	
12	14	0.0	
12	15	0.0	
12	16	0.0	
12	17	0.0	
12	18	0.0	
12	19	0.0	
12	20	0.0	
12	21	0.0	
12	22	0.0	
12	23	0.0	
12	24	0.0	
12	25	0.0	
12	26	0.0	
12	27	0.0	
12	28	0.0	
12	29	0.0	
12	30	0.0	
12	31	0.0	
12	32	0.0	
12	33	0.0	
12	34	0.0	
12	35	0.0	
12	36	0.0	
12	37	0.0	
12	38	0.0	
12	39	0.0	
12	40	0.0	
13	0	0.0	
13	1	0.0	
13	2	0.0	
13	3	0.0	
13	4	0.0	
13	5	0.0	
13	6	0.0	
13	7	0.0	
13	8	0.0	
13	9	0.0	
13	10	0.0	
13	11	0.0	
13	12	0.0	
13	13	0.0	
13	14	0.0	
13	15	0.0	
13	16	0.0	
13	17	0.0	
13	18	0.0	
13	19	0.0	
13	20	0.0	
13	21	0.0	
13	22	0.0	
13	23	0.0	
13	24	0.0	
13	25	0.0	
13	26	0.0	
13	27	0.0	
13	28	0.0	
13	29	0.0	
13	30	0.0	
13	31	0.0	
13	32	0.0	
13	33	0.0	
13	34	0.0	
13	35	0.0	
13	36	0.0	
13	37	0.0	
13	38	0.0	
13	39	0.0	
13	40	0.0	
14	0	0.0	
14	1	0.0	
14	2	0.0	
14	3	0.0	
14	4	0.0	
14	5	0.0	
14	6	0.0	
14	7	0.0	
14	8	0.0	
14	9	0.0	
14	10	0.0	
14	11	0.0	
14	12	0.0	
14	13	0.0	
14	14	0.0	
14	15	0.0	
14	16	0.0	
14	17	0.0	
14	18	0.0	
14	19	0.0	
14	20	0.0	
14	21	0.0	
14	22	0.0	
14	23	0.0	
14	24	0.0	
14	25	0.0	
14	26	0.0	
14	27	0.0	
14	28	0.0	
14	29	0.0	
14	30	0.0	
14	31	0.0	
14	32	0.0	
14	33	0.0	
14	34	0.0	
14	35	0.0	
14	36	0.0	
14	37	0.0	
14	38	0.0	
14	39	0.0	
14	40	0.0	
15	0	0.0	
15	1	0.0	
15	2	0.0	
15	3	0.0	
15	4	0.0	
15	5	0.0	
15	6	0.0	
15	7	0.0	
15	8	0.0	
15	9	0.0	
15	10	0.0	
15	11	0.0	
15	12	0.0	
15	13	0.0	
15	14	0.0	
15	15	0.0	
15	16	0.0	
15	17	0.0	
15	18	0.0	
15	19	0.0	
15	20	0.0	
15	21	0.0	
15	22	0.0	
15	23	0.0	
15	24	0.0	
15	25	0.0	
15	26	0.0	
15	27	0.0	
15	28	0.0	
15	29	0.0	
15	30	0.0	
15	31	0.0	
15	32	0.0	
15	33	0.0	
15	34	0.0	
15	35	0.0	
15	36	0.0	
15	37	0.0	
15	38	0.0	
15	39	0.0	
15	40	0.0	
16	0	0.0	
16	1	0.0	
16	2	0.0	
16	3	0.0	
16	4	0.0	
16	5	0.0	
16	6	0.0	
16	7	0.0	
16	8	0.0	
16	9	0.0	
16	10	0.0	
16	11	0.0	
16	12	0.0	
16	13	0.0	
16	14	0.0	
16	15	0.0	
16	16	0.0	
16	17	0.0	
16	18	0.0	
16	19	0.0	
16	20	0.0	
16	21	0.0	
16	22	0.0	
16	23	0.0	
16	24	0.0	
16	25	0.0	
16	26	0.0	
16	27	0.0	
16	28	0.0	
16	29	0.0	
16	30	0.0	
16	31	0.0	
16	32	0.0	
16	33	0.0	
16	34	0.0	
16	35	0.0	
16	36	0.0	
16	37	0.0	
16	38	0.0	
16	39	0.0	
16	40	0.0	
17	0	0.0	
17	1	0.0	
17	2	0.0	
17	3	0.0	
17	4	0.0	
17	5	0.0	
17	6	0.0	
17	7	0.0	
17	8	0.0	
17	9	0.0	
17	10	0.0	
17	11	0.0	
17	12	0.0	
17	13	0.0	
17	14	0.0	
17	15	0.0	
17	16	0.0	
17	17	0.0	
17	18	0.0	
17	19	0.0	
17	20	0.0	
17	21	0.0	
17	22	0.0	
17	23	0.0	
17	24	0.0	
17	25	0.0	
17	26	0.0	
17	27	0.0	
17	28	0.0	
17	29	0.0	
17	30	0.0	
17	31	0.0	
17	32	0.0	
17	33	0.0	
17	34	0.0	
17	35	0.0	
17	36	0.0	
17	37	0.0	
17	38	0.0	
17	39	0.0	
17	40	0.0	
18	0	0.0	
18	1	0.0	
18	2	0.0	
18	3	0.0	
18	4	0.0	
18	5	0.0	
18	6	0.0	
18	7	0.0	
18	8	0.0	
18	9	0.0	
18	10	0.0	
18	11	0.0	
18	12	0.0	
18	13	0.0	
18	14	0.0	
18	15	0.0	
18	16	0.0	
18	17	0.0	
18	18	0.0	
18	19	0.0	
18	20	0.0	
18	21	0.0	
18	22	0.0	
18	23	0.0	
18	24	0.0	
18	25	0.0	
18	26	0.0	
18	27	0.0	
18	28	0.0	
18	29	0.0	
18	30	0.0	
18	31	0.0	
18	32	0.0	
18	33	0.0	
18	34	0.0	
18	35	0.0	
18	36	0.0	
18	37	0.0	
18	38	0.0	
18	39	0.0	
18	40	0.0	
19	0	0.0	
19	1	0.0	
19	2	0.0	
19	3	0.0	
19	4	0.0	
19	5	0.0	
19	6	0.0	
19	7	0.0	
19	8	0.0	
19	9	0.0	
19	10	0.0	
19	11	0.0	
19	12	0.0	
19	13	0.0	
19	14	0.0	
19	15	0.0	
19	16	0.0	
19	17	0.0	
19	18	0.0	
19	19	0.0	
19	20	0.0	
19	21	0.0	
19	22	0.0	
19	23	0.0	
19	24	0.0	
19	25	0.0	
19	26	0.0	
19	27	0.0	
19	28	0.0	
19	29	0.0	
19	30	0.0	
19	31	0.0	
19	32	0.0	
19	33	0.0	
19	34	0.0	
19	35	0.0	
19	36	0.0	
19	37	0.0	
19	38	0.0	
19	39	0.0	
19	40	0.0	
20	0	0.0	
20	1	0.0	
20	2	0.0	
20	3	0.0	
20	4	0.0	
20	5	0.0	
20	6	0.0	
20	7	0.0	
20	8	0.0	
20	9	0.0	
20	10	0.0	
20	11	0.0	
20	12	0.0	
20	13	0.0	
20	14	0.0	
20	15	0.0	
20	16	0.0	
20	17	0.0	
20	18	0.0	
20	19	0.0	
20	20	0.0	
20	21	0.0	
20	22	0.0	
20	23	0.0	
20	24	0.0	
20	25	0.0	
20	26	0.0	
20	27	0.0	
20	28	0.0	
20	29	0.0	
20	30	0.0	
20	31	0.0	
20	32	0.0	
20	33	0.0	
20	34	0.0	
20	35	0.0	
20	36	0.0	
20	37	0.0	
20	38	0.0	
20	39	0.0	
20	40	0.0	
21	0	0.0	
21	1	0.0	
21	2	0.0	
21	3	0.0	
21	4	0.0	
21	5	0.0	
21	6	0.0	
21	7	0.0	
21	8	0.0	
21	9	0.0	
21	10	0.0	
21	11	0.0	
21	12	0.0	
21	13	0.0	
21	14	0.0	
21	15	0.0	
21	16	0.0	
21	17	0.0	
21	18	0.0	
21	19	0.0	
21	20	0.0	
21	21	0.0	
21	22	0.0	
21	23	0.0	
21	24	0.0	
21	25	0.0	
21	26	0.0	
21	27	0.0	
21	28	0.0	
21	29	0.0	
21	30	0.0	
21	31	0.0	
21	32	0.0	
21	33	0.0	
21	34	0.0	
21	35	0.0	
21	36	0.0	
21	37	0.0	
21	38	0.0	
21	39	0.0	
21	40	0.0	
22	0	0.0	
22	1	0.0	
22	2	0.0	
22	3	0.0	
22	4	0.0	
22	5	0.0	
22	6	0.0	
22	7	0.0	
22	8	0.0	
22	9	0.0	
22	10	0.0	
22	11	0.0	
22	12	0.0	
22	13	0.0	
22	14	0.0	
22	15	0.0	
22	16	0.0	
22	17	0.0	
22	18	0.0	
22	19	0.0	
22	20	0.0	
22	21	0.0	
22	22	0.0	
22	23	0.0	
22	24	0.0	
22	25	0.0	
22	26	0.0	
22	27	0.0	
22	28	0.0	
22	29	0.0	
22	30	0.0	
22	31	0.0	
22	32	0.0	
22	33	0.0	
22	34	0.0	
22	35	0.0	
22	36	0.0	
22	37	0.0	
22	38	0.0	
22	39	0.0	
22	40	0.0	
23	0	0.0	
23	1	0.0	
23	2	0.0	
23	3	0.0	
23	4	0.0	
23	5	0.0	
23	6	0.0	
23	7	0.0	
23	8	0.0	
23	9	0.0	
23	10	0.0	
23	11	0.0	
23	12	0.0	
23	13	0.0	
23	14	0.0	
23	15	0.0	
23	16	0.0	
[...]
CELL_DATA	2400
SCALARS Rho float
LOOKUP_TABLE default
1
1
1
1
1
1
1
1
1
1
1
1
1
1
0.0771709
0.0362605
0.0198528
0.00525809
0.000395793
1.11494e-06
1.11494e-06
0.000395793
0.00525809
0.0198528
0.0362605
0.0771709
1
1
1
1
1
1
1
1
1
1
1
1
1
1
1
1
1
1
1
1
1
1
1
1
1
1
1
1
0.0694711
0.0331821
0.0133978
0.00350028
0.000776631
4.7183e-05
4.7183e-05
0.000776631
0.00350028
0.0133978
0.0331821
0.0694711
1
1
1
1
1
1
1
1
1
1
1
1
1
1
1
1
1
1
1
1
1
1
1
1
1
1
1
1
0.353422
0.0627297
0.0230945
0.0109017
0.00341622
0.000731704
0.000731704
0.00341622
0.0109017
0.0230945
0.0627297
0.353422
1
1
1
1
1
1
1
1
1
1
1
1
1
1
1
1
1
1
1
1
1
1
1
1
1
1
1
1
1
0.115493
0.0603785
0.024775
0.0102091
0.00354061
0.00354061
0.0102091
0.024775
0.0603785
0.115493
1
1
1
1
1
1
1
1
1
1
1
1
1
1
1
1
1
1
1
1
1
1
1
1
1
1
1
1
1
1
0.494201
0.11972
0.054442
0.025765
0.0107363
0.0107363
0.025765
0.054442
0.11972
0.494201
1
1
1
1
1
1
1
1
1
1
1
1
1
1
1
1
1
1
1
1
1
1
1
1
1
1
1
1
1
1
1
0.269231
0.124823
0.0548079
0.0272086
0.0272086
0.0548079
0.124823
0.269231
1
1
1
1
1
1
1
1
1
1
1
1
1
1
1
1
1
1
1
1
1
1
1
1
1
1
1
1
1
1
1
1
0.861408
0.231906
0.121303
0.0619578
0.0619578
0.121303
0.231906
0.861408
1
1
1
1
1
1
1
1
1
1
1
1
1
1
1
1
1
1
1
1
1
1
1
1
1
1
1
1
1
1
1
1
1
0.559012
0.246321
0.132408
0.132408
0.246321
0.559012
1
1
1
1
1
1
1
1
1
1
1
1
1
1
1
1
1
1
1
1
1
1
1
1
1
1
1
1
1
1
1
1
1
1
1
0.445142
0.277053
0.277053
0.445142
1
1
1
1
1
1
1
1
1
1
1
1
1
1
1
1
1
1
1
1
1
1
1
1
1
1
1
1
1
1
1
1
1
1
1
1
0.84096
0.485237
0.485237
0.84096
1
1
1
1
1
1
1
1
1
1
1
1
1
1
1
1
1
1
1
1
1
1
1
1
1
1
1
1
1
1
1
1
1
1
1
1
1
0.765395
0.765395
1
1
1
1
1
1
1
1
1
1
1
1
1
1
1
1
1
1
1
1
1
1
1
1
1
1
1
1
1
1
1
1
1
1
1
1
1
1
1
1
1
1
1
1
1
1
1
1
1
1
1
1
1
1
1
1
1
1
1
1
1
1
1
1
1
1
1
1
1
1
1
1
1
1
1
1
1
1
1
1
1
1
1
1
1
1
1
1
1
1
1
1
1
1
1
1
1
1
1
1
1
1
1
1
1
1
1
1
1
1
1
1
1
1
1
1
1
1
1
1
1
1
1
1
1
1
1
1
1
1
1
1
1
1
1
1
1
1
1
1
1
1
1
1
1
1
1
1
1
1
1
1
1
1
1
1
1
1
1
1
1
1
1
1
1
1
1
1
1
1
1
1
1
1
1
1
1
1
1
1
1
1
1
1
1
1
1
1
1
1
1
1
1
1
1
1
1
1
1
1
1
1
1
1
1
1
1
1
1
1
1
1
1
1
1
1
1
1
1
1
1
1
1
1
1
1
1
1
1
1
1
1
1
1
1
1
1
1
1
1
1
1
1
1
1
1
1
1
1
1
1
1
1
1
1
1
1
1
1
1
1
1
1
1
1
1
1
1
1
1
1
1
1
1
1
1
1
1
1
1
1
1
1
1
1
1
1
1
1
1
1
1
1
1
1
1
1
1
1
1
1
1
1
1
1
1
1
1
1
1
1
1
1
1
1
1
1
1
1
1
1
1
1
1
1
1
1
1
1
1
1
1
1
1
1
1
1
1
1
1
1
1
1
1
1
1
1
1
1
1
1
1
1
1
1
1
1
1
1
1
1
1
1
1
1
1
1
1
1
1
1
1
1
1
1
1
1
1
1
1
1
1
1
1
1
1
1
1
1
1
1
1
1
1
1
1
1
1
1
1
1
1
1
1
1
1
1
1
1
1
1
1
1
1
1
1
1
1
1
1
1
1
1
1
1
1
1
1
1
1
1
1
1
1
1
1
1
1
1
1
1
1
1
1
1
1
1
1
1
1
1
1
1
1
1
1
1
1
1
1
1
1
1
1
1
1
1
1
1
1
1
1
1
1
1
1
1
1
1
1
1
1
1
1
1
1
1
1
1
1
1
1
1
1
1
1
1
1
1
1
1
1
1
1
1
1
1
1
1
1
1
1
1
1
1
1
1
1
1
1
1
1
1
1
1
1
1
1
1
1
1
1
1
1
1
1
1
1
1
1
1
1
1
1
1
1
1
1
1
1
1
1
1
1
1
1
1
1
1
1
1
1
1
1
1
1
1
1
1
1
1
1
1
1
1
1
1
1
1
1
1
1
1
1
1
1
1
1
1
1
1
1
1
1
1
1
1
1
1
1
1
1
1
1
1
1
1
1
1
1
1
1
1
1
1
1
1
1
1
1
1
1
1
1
1
1
1
1
1
1
1
1
1
1
1
1
1
1
1
1
1
1
1
1
1
1
1
1
1
1
1
1
1
1
1
1
1
1
1
1
1
1
1
1
1
1
1
1
1
1
1
1
1
1
1
1
1
1
1
1
1
1
1
1
1
1
1
1
1
1
1
1
1
1
1
1
1
1
1
1
1
1
1
1
1
1
1
1
1
1
1
1
1
1
1
1
1
1
1
1
1
1
1
1
1
1
1
1
1
1
1
1
1
1
1
1
1
1
1
1
1
1
1
1
1
1
1
1
1
1
1
1
1
1
1
1
1
1
1
1
1
1
1
1
1
1
1
1
1
1
1
1
1
1
1
1
1
1
1
1
1
1
1
1
1
1
1
1
1
1
1
1
1
1
1
1
1
1
1
1
1
1
1
1
1
1
1
1
1
1
1
1
1
1
1
1
1
1
1
1
1
1
1
1
1
1
1
1
1
1
1
1
1
1
1
1
1
1
1
1
1
1
1
1
1
1
1
1
1
1
1
1
1
1
1
1
1
1
1
1
1
1
1
1
1
1
1
1
1
1
1
1
1
1
1
1
1
1
1
1
1
1
1
1
1
1
1
1
1
1
1
1
1
1
1
1
1
1
1
1
1
1
1
1
1
1
1
1
1
1
1
1
1
1
1
1
1
1
1
1
1
1
1
1
1
1
1
1
1
1
1
1
1
1
1
1
1
1
1
1
1
1
1
1
1
1
1
1
1
1
1
1
1
1
1
1
1
1
1
1
1
1
1
1
1
1
1
1
1
1
1
1
1
1
1
1
1
1
1
1
1
1
1
1
1
1
1
1
1
1
1
1
1
1
0.970129
0.943614
0.936471
0.937562
0.93944
0.93944
0.937562
0.936471
0.943614
0.970129
1
1
1
1
1
1
1
1
1
1
1
1
1
1
1
1
1
1
1
1
1
1
1
1
1
1
1
1
0.912232
0.93826
0.901394
0.883497
0.879073
0.877931
0.878301
0.878301
0.877931
0.879073
0.883497
0.901394
0.93826
0.912232
1
1
1
1
1
1
1
1
1
1
1
1
1
1
1
1
1
1
1
1
1
1
1
1
1
1
0.766384
0.870786
0.859808
0.843045
0.832427
0.826574
0.823059
0.823059
0.826574
0.832427
0.843045
0.859808
0.870786
0.766384
1
1
1
1
1
1
1
1
1
1
1
1
1
1
1
1
1
1
1
1
1
1
1
1
1
1
0.711724
0.795918
0.820129
0.806469
0.792353
0.781439
0.774546
0.774546
0.781439
0.792353
0.806469
0.820129
0.795918
0.711724
1
1
1
1
1
1
1
1
1
1
1
1
1
1
1
1
1
1
1
1
1
1
1
1
1
1
0.682439
0.725738
0.765162
0.767192
0.753362
0.741906
0.736729
0.736729
0.741906
0.753362
0.767192
0.765162
0.725738
0.682439
1
1
1
1
1
1
1
1
1
1
1
1
1
1
1
1
1
1
1
1
1
1
1
1
1
1
0.658432
0.675824
0.704869
0.717699
0.713286
0.708917
0.70969
0.70969
0.708917
0.713286
0.717699
0.704869
0.675824
0.658432
1
1
1
1
1
1
1
1
1
1
1
1
1
1
1
1
1
1
1
1
1
1
1
1
1
1
0.640472
0.634937
0.647692
0.663251
0.676714
0.683989
0.684892
0.684892
0.683989
0.676714
0.663251
0.647692
0.634937
0.640472
1
1
1
1
1
1
1
1
1
1
1
1
1
0.738035
1
1
1
1
1
1
1
1
1
1
1
1
0.630872
0.592226
0.59879
0.624546
0.648583
0.657513
0.656601
0.656601
0.657513
0.648583
0.624546
0.59879
0.592226
0.630872
1
1
1
1
1
1
1
1
1
1
1
1
0.738035
0.185602
1
1
1
1
1
1
1
1
1
1
1
1
0.654965
0.55379
0.579576
0.605655
0.616243
0.621725
0.628137
0.628137
0.621725
0.616243
0.605655
0.579576
0.55379
0.654965
1
1
1
1
1
1
1
1
1
1
1
1
0.185602
0.00342052
1
1
1
1
1
1
1
1
1
1
1
1
0.801771
0.550424
0.574162
0.572913
0.57768
0.589558
0.597
0.597
0.589558
0.57768
0.572913
0.574162
0.550424
0.801771
1
1
1
1
1
1
1
1
1
1
1
1
0.00342052
0.000193186
0.335903
1
1
1
1
1
1
1
1
1
1
1
1
0.542854
0.533152
0.535211
0.550559
0.560701
0.561848
0.561848
0.560701
0.550559
0.535211
0.533152
0.542854
1
1
1
1
1
1
1
1
1
1
1
1
0.335903
0.000193186
8.01125e-08
0.0118625
1
1
1
1
1
1
1
1
1
1
1
1
0.575458
0.496738
0.516736
0.525577
0.525114
0.530367
0.530367
0.525114
0.525577
0.516736
0.496738
0.575458
1
1
1
1
1
1
1
1
1
1
1
1
0.0118625
8.01125e-08
1e-10
0.000699868
0.320528
1
1
1
1
1
1
1
1
1
1
1
0.764877
0.503221
0.492735
0.489485
0.497793
0.499194
0.499194
0.497793
0.489485
0.492735
0.503221
0.764877
1
1
1
1
1
1
1
1
1
1
1
0.320528
0.000699868
1e-10
1e-10
6.24501e-10
0.00453474
1
1
1
1
1
1
1
1
1
1
1
1
0.510489
0.468655
0.468581
0.468724
0.468864
0.468864
0.468724
0.468581
0.468655
0.510489
1
1
1
1
1
1
1
1
1
1
1
1
0.00453474
6.24501e-10
1e-10
1e-10
1e-10
0.000280844
0.191241
1
1
1
1
1
1
1
1
1
1
1
0.673793
0.465572
0.446821
0.441604
0.440905
0.440905
0.441604
0.446821
0.465572
0.673793
1
1
1
1
1
1
1
1
1
1
1
0.191241
0.000280844
1e-10
1e-10
1e-10
1e-10
3.8211e-10
0.00299636
0.564973
1
1
1
1
1
1
1
1
1
1
1
0.477116
0.435193
0.421199
0.415582
0.415582
0.421199
0.435193
0.477116
1
1
1
1
1
1
1
1
1
1
1
0.564973
0.00299636
3.8211e-10
1e-10
1e-10
1e-10
1e-10
1e-10
5.90034e-08
0.0122322
1
1
1
1
1
1
1
1
1
1
1
0.745001
0.424764
0.401345
0.39982
0.39982
0.401345
0.424764
0.745001
1
1
1
1
1
1
1
1
1
1
1
0.0122322
5.90034e-08
1e-10
1e-10
1e-10
1e-10
1e-10
1e-10
1e-10
0.000737489
0.106101
1
1
1
1
1
1
1
1
1
1
1
0.50786
0.407862
0.382847
0.382847
0.407862
0.50786
1
1
1
1
1
1
1
1
1
1
1
0.106101
0.000737489
1e-10
1e-10
1e-10
1e-10
1e-10
1e-10
1e-10
1e-10
1e-10
0.00325078
0.251593
1
1
1
1
1
1
1
1
1
1
1
0.404551
0.386181
0.386181
0.404551
1
1
1
1
1
1
1
1
1
1
1
0.251593
0.00325078
1e-10
1e-10
1e-10
1e-10
1e-10
1e-10
1e-10
1e-10
1e-10
1e-10
2.23516e-10
0.00476784
0.365231
1
1
1
1
1
1
1
1
1
1
0.70502
0.396207
0.396207
0.70502
1
1
1
1
1
1
1
1
1
1
0.365231
0.00476784
2.23516e-10
1e-10
1e-10
1e-10
1e-10
1e-10
1e-10
1e-10
1e-10
1e-10
1e-10
1e-10
7.24077e-08
0.00769741
0.41257
1
1
1
1
1
1
1
1
1
1
0.542921
0.542921
1
1
1
1
1
1
1
1
1
1
0.41257
0.00769741
7.24077e-08
1e-10
1e-10
1e-10
1e-10
1e-10
1e-10
1e-10
1e-10
1e-10
1e-10
1e-10
1e-10
1e-10
6.26185e-07
0.00803443
0.37792
1
1
1
1
1
1
1
1
1
1
1
1
1
1
1
1
1
1
1
1
0.37792
0.00803443
6.26185e-07
1e-10
1e-10
1e-10
1e-10
1e-10
1e-10
1e-10
1e-10
1e-10
1e-10
1e-10
1e-10
1e-10
1e-10
1e-10
1.65926e-07
0.00496723
0.263494
1
1
1
1
1
1
1
1
1
1
1
1
1
1
1
1
1
1
0.263494
0.00496723
1.65926e-07
1e-10
1e-10
1e-10
1e-10
1e-10
1e-10
1e-10
1e-10
1e-10
1e-10
1e-10
1e-10
1e-10
1e-10
1e-10
1e-10
1e-10
6.38723e-10
0.00300019
0.103417
0.996811
1
1
1
1
1
1
1
1
1
1
1
1
1
1
0.996811
0.103417
0.00300019
6.38723e-10
1e-10
1e-10
1e-10
1e-10
1e-10
1e-10
1e-10
1e-10
1e-10
1e-10
1e-10
1e-10
1e-10
1e-10
1e-10
1e-10
1e-10
1e-10
1e-10
1e-10
0.000146153
0.00320958
0.285825
1
1
1
1
1
1
1
1
1
1
1
1
0.285825
0.00320958
0.000146153
1e-10
1e-10
1e-10
1e-10
1e-10
1e-10
1e-10
1e-10
1e-10
1e-10
1e-10

POINT_DATA	7401
VECTORS u0 float
0	0	0
0	0	0
0	0	0
0	0	0
0	0	0
0	0	0
0	0	0
0	0	0
0	0	0
0	0	0
0	0	0
0	0	0
0	0	0
0	0	0
0	0	0
0	0	0
0	0	0
0	0	0
0	0	0
0	0	0
0	0	0
0	0	0
0	0	0
0	0	0
0	0	0
0	0	0
0	0	0
0	0	0
0	0	0
0	0	0
0	0	0
0	0	0
0	0	0
0	0	0
0	0	0
0	0	0
0	0	0
0	0	0
0	0	0
0	0	0
0	0	0
-0.0018967	-0.000943288	0
-0.00118674	-0.000580793	0
-0.000931219	-0.000393634	0
-0.000799095	-0.000306177	0
-0.000707645	-0.000247264	0
-0.000637066	-0.000205043	0
-0.000577875	-0.000172423	0
-0.000525708	-0.000146212	0
-0.000478081	-0.00012446	0
-0.00043344	-0.000105756	0
-0.00039066	-8.8785e-05	0
-0.000348593	-7.15281e-05	0
-0.000305523	-5.04433e-05	0
-0.000259001	-1.21448e-05	0
-0.000235214	4.72592e-05	0
-0.000204938	8.83852e-05	0
-0.000191351	0.00011997	0
-0.000176254	0.000129093	0
-0.000143667	0.000103144	0
-0.000109141	3.78764e-05	0
4.60937e-16	-7.71697e-06	0
0.000109141	3.78764e-05	0
0.000143667	0.000103144	0
0.000176254	0.000129093	0
0.000191351	0.00011997	0
0.000204938	8.83852e-05	0
0.000235214	4.72592e-05	0
0.000259001	-1.21448e-05	0
0.000305523	-5.04433e-05	0
0.000348593	-7.15281e-05	0
0.00039066	-8.8785e-05	0
0.00043344	-0.000105756	0
0.000478081	-0.00012446	0
0.000525708	-0.000146212	0
0.000577875	-0.000172423	0
0.000637066	-0.000205043	0
0.000707645	-0.000247264	0
0.000799095	-0.000306177	0
0.000931219	-0.000393634	0
0.00118674	-0.000580793	0
0.0018967	-0.000943288	0
-0.00275	-0.001765	0
-0.00216601	-0.00124585	0
-0.00171771	-0.00087037	0
-0.00144722	-0.000654664	0
-0.00126711	-0.000522738	0
-0.00113188	-0.000432581	0
-0.00102123	-0.000365937	0
-0.000925546	-0.000314159	0
-0.000839603	-0.000272362	0
-0.000760398	-0.000237392	0
-0.00068614	-0.000206676	0
-0.000615919	-0.000177143	0
-0.000550721	-0.000144347	0
-0.000488289	-9.71502e-05	0
-0.000403457	-2.99026e-05	0
-0.000409091	3.11588e-05	0
-0.000342561	4.70381e-05	0
-0.000262081	1.43717e-05	0
-0.000201352	-3.84771e-05	0
-0.00011245	-0.000125063	0
4.1251e-16	-0.000195195	0
0.00011245	-0.000125063	0
0.000201352	-3.84771e-05	0
0.000262081	1.43717e-05	0
0.000342561	4.70381e-05	0
0.000409091	3.11588e-05	0
0.000403457	-2.99026e-05	0
0.000488289	-9.71502e-05	0
0.000550721	-0.000144347	0
0.000615919	-0.000177143	0
0.00068614	-0.000206676	0
0.000760398	-0.000237392	0
0.000839603	-0.000272362	0
0.000925546	-0.000314159	0
0.00102123	-0.000365937	0
0.00113188	-0.000432581	0
0.00126711	-0.000522738	0
0.00144722	-0.000654664	0
0.00171771	-0.00087037	0
0.00216601	-0.00124585	0
0.00275	-0.001765	0
-0.00365557	-0.00230797	0
-0.00311719	-0.00187542	0
-0.00261999	-0.00145572	0
-0.00222433	-0.00112913	0
-0.00193558	-0.000905225	0
-0.00171725	-0.000750358	0
-0.00154105	-0.000637589	0
-0.00139101	-0.000551554	0
-0.0012582	-0.000483326	0
-0.00113752	-0.000427223	0
-0.00102618	-0.000378938	0
-0.000923008	-0.000334367	0
-0.000827068	-0.000289404	0
-0.000733065	-0.000243229	0
-0.000656594	-0.000195779	0
-0.000547259	-0.000131466	0
-0.000437333	-0.000158656	0
-0.000357814	-0.000191453	0
-0.000238625	-0.000251071	0
-0.000117489	-0.000350701	0
3.55898e-16	-0.000428698	0
0.000117489	-0.000350701	0
0.000238625	-0.000251071	0
0.000357814	-0.000191453	0
0.000437333	-0.000158656	0
0.000547259	-0.000131466	0
0.000656594	-0.000195779	0
0.000733065	-0.000243229	0
0.000827068	-0.000289404	0
0.000923008	-0.000334367	0
0.00102618	-0.000378938	0
0.00113752	-0.000427223	0
0.0012582	-0.000483326	0
0.00139101	-0.000551554	0
0.00154105	-0.000637589	0
0.00171725	-0.000750358	0
0.00193558	-0.000905225	0
0.00222433	-0.00112913	0
0.00261999	-0.00145572	0
0.00311719	-0.00187542	0
0.00365557	-0.00230797	0
-0.00447134	-0.00284329	0
-0.0039597	-0.00242575	0
-0.00346591	-0.00201947	0
-0.00301714	-0.0016538	0
-0.00264139	-0.00135991	0
-0.00233863	-0.00113929	0
-0.00209074	-0.000974615	0
-0.0018804	-0.000848748	0
-0.00169584	-0.000749608	0
-0.00152978	-0.000669002	0
-0.00137785	-0.000601062	0
-0.001237	-0.000541594	0
-0.00110394	-0.000488093	0
-0.000976183	-0.000438474	0
-0.000838821	-0.000395971	0
-0.000660065	-0.000380551	0
-0.000550249	-0.000381469	0
-0.000417776	-0.000430594	0
-0.000275763	-0.00051264	0
-0.000131211	-0.000603019	0
1.53671e-16	-0.000679409	0
0.000131211	-0.000603019	0
0.000275763	-0.00051264	0
0.000417776	-0.000430594	0
0.000550249	-0.000381469	0
0.000660065	-0.000380551	0
0.000838821	-0.000395971	0
0.000976183	-0.000438474	0
0.00110394	-0.000488093	0
0.001237	-0.000541594	0
0.00137785	-0.000601062	0
0.00152978	-0.000669002	0
0.00169584	-0.000749608	0
0.0018804	-0.000848748	0
0.00209074	-0.000974615	0
0.00233863	-0.00113929	0
0.00264139	-0.00135991	0
0.00301714	-0.0016538	0
0.00346591	-0.00201947	0
0.0039597	-0.00242575	0
0.00447134	-0.00284329	0
-0.0052622	-0.00335252	0
-0.00475851	-0.00295256	0
-0.00426532	-0.00255941	0
-0.0037953	-0.00218878	0
-0.00336712	-0.0018609	0
-0.00299443	-0.0015903	0
-0.00267613	-0.00137619	0
-0.00240198	-0.00120825	0
-0.00216099	-0.00107501	0
-0.00194461	-0.000967239	0
-0.00174661	-0.000878353	0
-0.00156194	-0.000804224	0
-0.00138569	-0.000742951	0
-0.00120979	-0.00069674	0
-0.00102331	-0.000671952	0
-0.000836717	-0.000659022	0
-0.000632176	-0.000643465	0
-0.000463305	-0.000703008	0
-0.000313842	-0.000790824	0
-0.000143997	-0.000889185	0
1.8971e-16	-0.000953319	0
0.000143997	-0.000889185	0
0.000313842	-0.000790824	0
0.000463305	-0.000703008	0
0.000632176	-0.000643465	0
0.000836717	-0.000659022	0
0.00102331	-0.000671952	0
0.00120979	-0.00069674	0
0.00138569	-0.000742951	0
0.00156194	-0.000804224	0
0.00174661	-0.000878353	0
0.00194461	-0.000967239	0
0.00216099	-0.00107501	0
0.00240198	-0.00120825	0
0.00267613	-0.00137619	0
0.00299443	-0.0015903	0
0.00336712	-0.0018609	0
0.0037953	-0.00218878	0
0.00426532	-0.00255941	0
0.00475851	-0.00295256	0
0.0052622	-0.00335252	0
-0.00602966	-0.0038587	0
-0.00552519	-0.0034693	0
-0.00502734	-0.00308721	0
-0.00454322	-0.00272073	0
-0.00408387	-0.00238176	0
-0.00366147	-0.00208284	0
-0.00328306	-0.00183104	0
-0.00294748	-0.00162501	0
-0.0026483	-0.00145808	0
-0.00237783	-0.00132265	0
-0.0021289	-0.00121258	0
-0.00189496	-0.00112408	0
-0.00166902	-0.0010562	0
-0.0014442	-0.00100976	0
-0.00121889	-0.000981004	0
-0.000989019	-0.000968311	0
-0.000744534	-0.000979761	0
-0.000525031	-0.00100088	0
-0.000329606	-0.00108902	0
-0.000159573	-0.00119458	0
3.55415e-16	-0.00125518	0
0.000159573	-0.00119458	0
0.000329606	-0.00108902	0
0.000525031	-0.00100088	0
0.000744534	-0.000979761	0
0.000989019	-0.000968311	0
0.00121889	-0.000981004	0
0.0014442	-0.00100976	0
0.00166902	-0.0010562	0
0.00189496	-0.00112408	0
0.0021289	-0.00121258	0
0.00237783	-0.00132265	0
0.0026483	-0.00145808	0
0.00294748	-0.00162501	0
0.00328306	-0.00183104	0
0.00366147	-0.00208284	0
0.00408387	-0.00238176	0
0.00454322	-0.00272073	0
0.00502734	-0.00308721	0
0.00552519	-0.0034693	0
0.00602966	-0.0038587	0
-0.00678178	-0.00436823	0
-0.00626983	-0.0039871	0
-0.00576262	-0.00361399	0
-0.0052644	-0.00325377	0
-0.00478194	-0.00291353	0
-0.00432383	-0.00260194	0
-0.00389786	-0.00232674	0
-0.00350777	-0.00209166	0
-0.00315216	-0.00189557	0
-0.0028261	-0.00173448	0
-0.00252306	-0.00160408	0
-0.00223614	-0.00150127	0
-0.00195893	-0.00142415	0
-0.00168723	-0.00137036	0
-0.00141763	-0.00133809	0
-0.00114648	-0.00132705	0
-0.000873514	-0.00133054	0
-0.000586211	-0.00134762	0
-0.000359458	-0.00141229	0
-0.000165925	-0.00151105	0
5.40997e-16	-0.00157603	0
0.000165925	-0.00151105	0
0.000359458	-0.00141229	0
0.000586211	-0.00134762	0
0.000873514	-0.00133054	0
0.00114648	-0.00132705	0
0.00141763	-0.00133809	0
0.00168723	-0.00137036	0
0.00195893	-0.00142415	0
0.00223614	-0.00150127	0
0.00252306	-0.00160408	0
0.0028261	-0.00173448	0
0.00315216	-0.00189557	0
0.00350777	-0.00209166	0
0.00389786	-0.00232674	0
0.00432383	-0.00260194	0
0.00478194	-0.00291353	0
0.0052644	-0.00325377	0
0.00576262	-0.00361399	0
0.00626983	-0.0039871	0
0.00678178	-0.00436823	0
-0.00752168	-0.00488739	0
-0.00699754	-0.00451279	0
-0.00647704	-0.00414718	0
-0.00596295	-0.00379345	0
-0.0054596	-0.00345598	0
-0.00497278	-0.00314054	0
-0.00450871	-0.0028534	0
-0.00407217	-0.00259964	0
-0.00366475	-0.0023817	0
-0.00328449	-0.00219924	0
-0.0029269	-0.00205035	0
-0.00258652	-0.00193259	0
-0.00225845	-0.00184321	0
-0.00193874	-0.00177964	0
-0.00162408	-0.00173999	0
-0.00131299	-0.0017215	0
-0.00100395	-0.00172318	0
-0.000697935	-0.00174254	0
-0.000403676	-0.00176996	0
-0.000171879	-0.00184731	0
7.30474e-16	-0.00190311	0
0.000171879	-0.00184731	0
0.000403676	-0.00176996	0
0.000697935	-0.00174254	0
0.00100395	-0.00172318	0
0.00131299	-0.0017215	0
0.00162408	-0.00173999	0
0.00193874	-0.00177964	0
0.00225845	-0.00184321	0
0.00258652	-0.00193259	0
0.0029269	-0.00205035	0
0.00328449	-0.00219924	0
0.00366475	-0.0023817	0
0.00407217	-0.00259964	0
0.00450871	-0.0028534	0
0.00497278	-0.00314054	0
0.0054596	-0.00345598	0
0.00596295	-0.00379345	0
0.00647704	-0.00414718	0
0.00699754	-0.00451279	0
0.00752168	-0.00488739	0
-0.00825147	-0.00542039	0
-0.0077115	-0.0050514	0
-0.00717453	-0.00469231	0
-0.00664245	-0.00434488	0
-0.0061181	-0.00401191	0
-0.00560537	-0.00369728	0
-0.00510872	-0.00340573	0
-0.00463228	-0.00314203	0
-0.00417862	-0.00290997	0
-0.00374791	-0.00271151	0
-0.0033381	-0.00254671	0
-0.0029459	-0.00241409	0
-0.00256773	-0.00231132	0
-0.0022003	-0.00223584	0
-0.0018413	-0.00218489	0
-0.00148919	-0.00215608	0
-0.0011445	-0.00214625	0
-0.000808628	-0.0021519	0
-0.000479012	-0.00217486	0
-0.000205249	-0.00221201	0
8.37055e-16	-0.00224168	0
0.000205249	-0.00221201	0
0.000479012	-0.00217486	0
0.000808628	-0.0021519	0
0.0011445	-0.00214625	0
0.00148919	-0.00215608	0
0.0018413	-0.00218489	0
0.0022003	-0.00223584	0
0.00256773	-0.00231132	0
0.0029459	-0.00241409	0
0.0033381	-0.00254671	0
0.00374791	-0.00271151	0
0.00417862	-0.00290997	0
0.00463228	-0.00314203	0
0.00510872	-0.00340573	0
0.00560537	-0.00369728	0
0.0061181	-0.00401191	0
0.00664245	-0.00434488	0
0.00717453	-0.00469231	0
0.0077115	-0.0050514	0
0.00825147	-0.00542039	0
-0.00897225	-0.00597059	0
-0.00841357	-0.00560667	0
-0.00785753	-0.0052535	0
-0.0073054	-0.00491217	0
-0.0067591	-0.0045845	0
-0.00622119	-0.0042732	0
-0.00569472	-0.00398181	0
-0.00518284	-0.00371433	0
-0.00468807	-0.00347454	0
-0.00421172	-0.00326527	0
-0.00375366	-0.00308777	0
-0.0033125	-0.00294167	0
-0.00288619	-0.00282538	0
-0.00247261	-0.00273652	0
-0.0020701	-0.00267225	0
-0.00167797	-0.00262944	0
-0.00129659	-0.0026049	0
-0.000927838	-0.00259593	0
-0.000578464	-0.00259803	0
-0.00025637	-0.00260895	0
1.01311e-15	-0.00262063	0
0.00025637	-0.00260895	0
0.000578464	-0.00259803	0
0.000927838	-0.00259593	0
0.00129659	-0.0026049	0
0.00167797	-0.00262944	0
0.0020701	-0.00267225	0
0.00247261	-0.00273652	0
0.00288619	-0.00282538	0
0.0033125	-0.00294167	0
0.00375366	-0.00308777	0
0.00421172	-0.00326527	0
0.00468807	-0.00347454	0
0.00518284	-0.00371433	0
0.00569472	-0.00398181	0
0.00622119	-0.0042732	0
0.0067591	-0.0045845	0
0.0073054	-0.00491217	0
0.00785753	-0.0052535	0
0.00841357	-0.00560667	0
0.00897225	-0.00597059	0
-0.00968451	-0.00654061	0
-0.00910484	-0.00618152	0
-0.00852757	-0.00583395	0
-0.00795358	-0.00549855	0
-0.00738412	-0.00517659	0
-0.00682086	-0.00487001	0
-0.00626585	-0.00458144	0
-0.00572136	-0.00431405	0
-0.00518958	-0.00407109	0
-0.00467225	-0.00385531	0
-0.00417034	-0.00366847	0
-0.00368392	-0.00351097	0
-0.00321239	-0.00338191	0
-0.00275483	-0.00327937	0
-0.00231048	-0.0032006	0
-0.00187917	-0.00314236	0
-0.0014615	-0.00310115	0
-0.00106001	-0.0030726	0
-0.000678918	-0.00305296	0
-0.000322393	-0.00304481	0
1.17689e-15	-0.0030445	0
0.000322393	-0.00304481	0
0.000678918	-0.00305296	0
0.00106001	-0.0030726	0
0.0014615	-0.00310115	0
0.00187917	-0.00314236	0
0.00231048	-0.0032006	0
0.00275483	-0.00327937	0
0.00321239	-0.00338191	0
0.00368392	-0.00351097	0
0.00417034	-0.00366847	0