# vtk DataFile Version 4.1
vtk output
ASCII
DATASET UNSTRUCTURED_GRID

POINTS	60	float
0	0	0	
1	0	0	
2	0	0	
3	0	0	
0	1	0	
1	1	0	
2	1	0	
3	1	0	
0	2	0	
1	2	0	
2	2	0	
3	2	0	
0	0	1	
1	0	1	
2	0	1	
3	0	1	
0	1	1	
1	1	1	
2	1	1	
3	1	1	
0	2	1	
1	2	1	
2	2	1	
3	2	1	
0	0	2	
1	0	2	
2	0	2	
3	0	2	
0	1	2	
1	1	2	
2	1	2	
3	1	2	
0	2	2	
1	2	2	
2	2	2	
3	2	2	
0	0	3	
1	0	3	
2	0	3	
3	0	3	
0	1	3	
1	1	3	
2	1	3	
3	1	3	
0	2	3	
1	2	3	
2	2	3	
3	2	3	
0	0	4	
1	0	4	
2	0	4	
3	0	4	
0	1	4	
1	1	4	
2	1	4	
3	1	4	
0	2	4	
1	2	4	
2	2	4	
3	2	4	

CELLS 24	216
8	0	1	5	4	12	13	17	16	
8	12	13	17	16	24	25	29	28	
8	24	25	29	28	36	37	41	40	
8	36	37	41	40	48	49	53	52	
8	4	5	9	8	16	17	21	20	
8	16	17	21	20	28	29	33	32	
8	28	29	33	32	40	41	45	44	
8	40	41	45	44	52	53	57	56	
8	1	2	6	5	13	14	18	17	
8	13	14	18	17	25	26	30	29	
8	25	26	30	29	37	38	42	41	
8	37	38	42	41	49	50	54	53	
8	5	6	10	9	17	18	22	21	
8	17	18	22	21	29	30	34	33	
8	29	30	34	33	41	42	46	45	
8	41	42	46	45	53	54	58	57	
8	2	3	7	6	14	15	19	18	
8	14	15	19	18	26	27	31	30	
8	26	27	31	30	38	39	43	42	
8	38	39	43	42	50	51	55	54	
8	6	7	11	10	18	19	23	22	
8	18	19	23	22	30	31	35	34	
8	30	31	35	34	42	43	47	46	
8	42	43	47	46	54	55	59	58	

CELL_TYPES	24
12
12
12
12
12
12
12
12
12
12
12
12
12
12
12
12
12
12
12
12
12
12
12
12

POINT_DATA	60
VECTORS u0 float
0	0	0
-0.000269591	0.00109621	-0.00318444
-0.000234709	0.00148143	-0.0035154
-0.000204789	0.00172509	-0.00384929
-0.00060741	0.000788865	-0.00215125
-0.000475986	0.00106286	-0.00217497
-0.00042065	0.00146277	-0.00260818
-0.000412538	0.001727	-0.00285512
0	0.00111138	-0.00135032
-0.00045052	0.00107561	-0.00159133
-0.000601129	0.00145195	-0.00168828
-0.000624749	0.00172399	-0.00189642
0	0.000322859	-0.00232447
0.000212785	0.000344776	-0.0029514
3.79825e-05	0.000539453	-0.00359869
3.47858e-05	0.000756956	-0.0038738
0	0.000470664	-0.0019635
-0.000114313	0.000402091	-0.00226304
-0.000157728	0.000578187	-0.00259724
-0.000178544	0.000779326	-0.00286215
0	0.000400411	-0.00133005
-0.000209133	0.000436442	-0.00142545
-0.000351507	0.000576976	-0.00163716
-0.000393592	0.000785015	-0.00186271
0	-0.000567122	-0.00300403
5.8434e-05	-0.000522396	-0.003228
0.00010618	-0.00042525	-0.00373096
0.000162851	-0.000302546	-0.00407194
0	-0.000490976	-0.0020912
1.32528e-05	-0.000471773	-0.0022675
-1.74321e-05	-0.000375814	-0.00262433
-7.56479e-06	-0.000216057	-0.00293071
0	-0.000481077	-0.0011477
-5.62673e-05	-0.000483244	-0.00127456
-0.000122077	-0.000386728	-0.00151284
-0.00018031	-0.000201601	-0.00177823
0	-0.00158575	-0.0032259
0.000100233	-0.00160164	-0.00337022
2.72941e-05	-0.00159699	-0.00397317
0.000190279	-0.00143455	-0.00479313
0	-0.00159301	-0.00218039
9.07479e-05	-0.00159665	-0.00230947
0.000159047	-0.0015668	-0.00265803
0.000205722	-0.00131076	-0.00308701
0	-0.00162415	-0.00108263
8.41384e-05	-0.00163046	-0.00117662
9.63052e-05	-0.00157682	-0.00138514
9.26742e-05	-0.0014734	-0.0015938
0	-0.00264946	-0.00331391
0.000296444	-0.00268792	-0.00350439
0.000662605	-0.00294945	-0.00380594
0.00129914	-0.00360024	-0.00730552
0	-0.00272914	-0.00225592
0.00029127	-0.00278978	-0.00235384
0.0005685	-0.00302359	-0.00279621
0.000606833	-0.00305057	-0.00286997
0	-0.00281706	-0.00111152
0.000256432	-0.00288392	-0.0011844
0.000352257	-0.00299755	-0.00131088
0.000320878	-0.00289239	-0.00162516
