# vtk DataFile Version 4.1
vtk output
ASCII
DATASET UNSTRUCTURED_GRID

POINTS	14586	float
0	0	0	
0.04	0	0	
0.08	0	0	
0.12	0	0	
0.16	0	0	
0.2	0	0	
0.24	0	0	
0.28	0	0	
0.32	0	0	
0.36	0	0	
0.4	0	0	
0	0.04	0	
0.04	0.04	0	
0.08	0.04	0	
0.12	0.04	0	
0.16	0.04	0	
0.2	0.04	0	
0.24	0.04	0	
0.28	0.04	0	
0.32	0.04	0	
0.36	0.04	0	
0.4	0.04	0	
0	0.08	0	
0.04	0.08	0	
0.08	0.08	0	
0.12	0.08	0	
0.16	0.08	0	
0.2	0.08	0	
0.24	0.08	0	
0.28	0.08	0	
0.32	0.08	0	
0.36	0.08	0	
0.4	0.08	0	
0	0.12	0	
0.04	0.12	0	
0.08	0.12	0	
0.12	0.12	0	
0.16	0.12	0	
0.2	0.12	0	
0.24	0.12	0	
0.28	0.12	0	
0.32	0.12	0	
0.36	0.12	0	
0.4	0.12	0	
0	0.16	0	
0.04	0.16	0	
0.08	0.16	0	
0.12	0.16	0	
0.16	0.16	0	
0.2	0.16	0	
0.24	0.16	0	
0.28	0.16	0	
0.32	0.16	0	
0.36	0.16	0	
0.4	0.16	0	
0	0.2	0	
0.04	0.2	0	
0.08	0.2	0	
0.12	0.2	0	
0.16	0.2	0	
0.2	0.2	0	
0.24	0.2	0	
0.28	0.2	0	
0.32	0.2	0	
0.36	0.2	0	
0.4	0.2	0	
0	0.24	0	
0.04	0.24	0	
0.08	0.24	0	
0.12	0.24	0	
0.16	0.24	0	
0.2	0.24	0	
0.24	0.24	0	
0.28	0.24	0	
0.32	0.24	0	
0.36	0.24	0	
0.4	0.24	0	
0	0.28	0	
0.04	0.28	0	
0.08	0.28	0	
0.12	0.28	0	
0.16	0.28	0	
0.2	0.28	0	
0.24	0.28	0	
0.28	0.28	0	
0.32	0.28	0	
0.36	0.28	0	
0.4	0.28	0	
0	0.32	0	
0.04	0.32	0	
0.08	0.32	0	
0.12	0.32	0	
0.16	0.32	0	
0.2	0.32	0	
0.24	0.32	0	
0.28	0.32	0	
0.32	0.32	0	
0.36	0.32	0	
0.4	0.32	0	
0	0.36	0	
0.04	0.36	0	
0.08	0.36	0	
0.12	0.36	0	
0.16	0.36	0	
0.2	0.36	0	
0.24	0.36	0	
0.28	0.36	0	
0.32	0.36	0	
0.36	0.36	0	
0.4	0.36	0	
0	0.4	0	
0.04	0.4	0	
0.08	0.4	0	
0.12	0.4	0	
0.16	0.4	0	
0.2	0.4	0	
0.24	0.4	0	
0.28	0.4	0	
0.32	0.4	0	
0.36	0.4	0	
0.4	0.4	0	
0	0.44	0	
0.04	0.44	0	
0.08	0.44	0	
0.12	0.44	0	
0.16	0.44	0	
0.2	0.44	0	
0.24	0.44	0	
0.28	0.44	0	
0.32	0.44	0	
0.36	0.44	0	
0.4	0.44	0	
0	0.48	0	
0.04	0.48	0	
0.08	0.48	0	
0.12	0.48	0	
0.16	0.48	0	
0.2	0.48	0	
0.24	0.48	0	
0.28	0.48	0	
0.32	0.48	0	
0.36	0.48	0	
0.4	0.48	0	
0	0.52	0	
0.04	0.52	0	
0.08	0.52	0	
0.12	0.52	0	
0.16	0.52	0	
0.2	0.52	0	
0.24	0.52	0	
0.28	0.52	0	
0.32	0.52	0	
0.36	0.52	0	
0.4	0.52	0	
0	0.56	0	
0.04	0.56	0	
0.08	0.56	0	
0.12	0.56	0	
0.16	0.56	0	
0.2	0.56	0	
0.24	0.56	0	
0.28	0.56	0	
0.32	0.56	0	
0.36	0.56	0	
0.4	0.56	0	
0	0.6	0	
0.04	0.6	0	
0.08	0.6	0	
0.12	0.6	0	
0.16	0.6	0	
0.2	0.6	0	
0.24	0.6	0	
0.28	0.6	0	
0.32	0.6	0	
0.36	0.6	0	
0.4	0.6	0	
0	0.64	0	
0.04	0.64	0	
0.08	0.64	0	
0.12	0.64	0	
0.16	0.64	0	
0.2	0.64	0	
0.24	0.64	0	
0.28	0.64	0	
0.32	0.64	0	
0.36	0.64	0	
0.4	0.64	0	
0	0.68	0	
0.04	0.68	0	
0.08	0.68	0	
0.12	0.68	0	
0.16	0.68	0	
0.2	0.68	0	
0.24	0.68	0	
0.28	0.68	0	
0.32	0.68	0	
0.36	0.68	0	
0.4	0.68	0	
0	0.72	0	
0.04	0.72	0	
0.08	0.72	0	
0.12	0.72	0	
0.16	0.72	0	
0.2	0.72	0	
0.24	0.72	0	
0.28	0.72	0	
0.32	0.72	0	
0.36	0.72	0	
0.4	0.72	0	
0	0.76	0	
0.04	0.76	0	
0.08	0.76	0	
0.12	0.76	0	
0.16	0.76	0	
0.2	0.76	0	
0.24	0.76	0	
0.28	0.76	0	
0.32	0.76	0	
0.36	0.76	0	
0.4	0.76	0	
0	0.8	0	
0.04	0.8	0	
0.08	0.8	0	
0.12	0.8	0	
0.16	0.8	0	
0.2	0.8	0	
0.24	0.8	0	
0.28	0.8	0	
0.32	0.8	0	
0.36	0.8	0	
0.4	0.8	0	
0	0.84	0	
0.04	0.84	0	
0.08	0.84	0	
0.12	0.84	0	
0.16	0.84	0	
0.2	0.84	0	
0.24	0.84	0	
0.28	0.84	0	
0.32	0.84	0	
0.36	0.84	0	
0.4	0.84	0	
0	0.88	0	
0.04	0.88	0	
0.08	0.88	0	
0.12	0.88	0	
0.16	0.88	0	
0.2	0.88	0	
0.24	0.88	0	
0.28	0.88	0	
0.32	0.88	0	
0.36	0.88	0	
0.4	0.88	0	
0	0.92	0	
0.04	0.92	0	
0.08	0.92	0	
0.12	0.92	0	
0.16	0.92	0	
0.2	0.92	0	
0.24	0.92	0	
0.28	0.92	0	
0.32	0.92	0	
0.36	0.92	0	
0.4	0.92	0	
0	0.96	0	
0.04	0.96	0	
0.08	0.96	0	
0.12	0.96	0	
0.16	0.96	0	
0.2	0.96	0	
0.24	0.96	0	
0.28	0.96	0	
0.32	0.96	0	
0.36	0.96	0	
0.4	0.96	0	
0	1	0	
0.04	1	0	
0.08	1	0	
0.12	1	0	
0.16	1	0	
0.2	1	0	
0.24	1	0	
0.28	1	0	
0.32	1	0	
0.36	1	0	
0.4	1	0	
0	0	0.04	
0.04	0	0.04	
0.08	0	0.04	
0.12	0	0.04	
0.16	0	0.04	
0.2	0	0.04	
0.24	0	0.04	
0.28	0	0.04	
0.32	0	0.04	
0.36	0	0.04	
0.4	0	0.04	
0	0.04	0.04	
0.04	0.04	0.04	
0.08	0.04	0.04	
0.12	0.04	0.04	
0.16	0.04	0.04	
0.2	0.04	0.04	
0.24	0.04	0.04	
0.28	0.04	0.04	
0.32	0.04	0.04	
0.36	0.04	0.04	
0.4	0.04	0.04	
0	0.08	0.04	
0.04	0.08	0.04	
0.08	0.08	0.04	
0.12	0.08	0.04	
0.16	0.08	0.04	
0.2	0.08	0.04	
0.24	0.08	0.04	
0.28	0.08	0.04	
0.32	0.08	0.04	
0.36	0.08	0.04	
0.4	0.08	0.04	
0	0.12	0.04	
0.04	0.12	0.04	
0.08	0.12	0.04	
0.12	0.12	0.04	
0.16	0.12	0.04	
0.2	0.12	0.04	
0.24	0.12	0.04	
0.28	0.12	0.04	
0.32	0.12	0.04	
0.36	0.12	0.04	
0.4	0.12	0.04	
0	0.16	0.04	
0.04	0.16	0.04	
0.08	0.16	0.04	
0.12	0.16	0.04	
0.16	0.16	0.04	
0.2	0.16	0.04	
0.24	0.16	0.04	
0.28	0.16	0.04	
0.32	0.16	0.04	
0.36	0.16	0.04	
0.4	0.16	0.04	
0	0.2	0.04	
0.04	0.2	0.04	
0.08	0.2	0.04	
0.12	0.2	0.04	
0.16	0.2	0.04	
0.2	0.2	0.04	
0.24	0.2	0.04	
0.28	0.2	0.04	
0.32	0.2	0.04	
0.36	0.2	0.04	
0.4	0.2	0.04	
0	0.24	0.04	
0.04	0.24	0.04	
0.08	0.24	0.04	
0.12	0.24	0.04	
0.16	0.24	0.04	
0.2	0.24	0.04	
0.24	0.24	0.04	
0.28	0.24	0.04	
0.32	0.24	0.04	
0.36	0.24	0.04	
0.4	0.24	0.04	
0	0.28	0.04	
0.04	0.28	0.04	
0.08	0.28	0.04	
0.12	0.28	0.04	
0.16	0.28	0.04	
0.2	0.28	0.04	
0.24	0.28	0.04	
0.28	0.28	0.04	
0.32	0.28	0.04	
0.36	0.28	0.04	
0.4	0.28	0.04	
0	0.32	0.04	
0.04	0.32	0.04	
0.08	0.32	0.04	
0.12	0.32	0.04	
0.16	0.32	0.04	
0.2	0.32	0.04	
0.24	0.32	0.04	
0.28	0.32	0.04	
0.32	0.32	0.04	
0.36	0.32	0.04	
0.4	0.32	0.04	
0	0.36	0.04	
0.04	0.36	0.04	
0.08	0.36	0.04	
0.12	0.36	0.04	
0.16	0.36	0.04	
0.2	0.36	0.04	
0.24	0.36	0.04	
0.28	0.36	0.04	
0.32	0.36	0.04	
0.36	0.36	0.04	
0.4	0.36	0.04	
0	0.4	0.04	
0.04	0.4	0.04	
0.08	0.4	0.04	
0.12	0.4	0.04	
0.16	0.4	0.04	
0.2	0.4	0.04	
0.24	0.4	0.04	
0.28	0.4	0.04	
0.32	0.4	0.04	
0.36	0.4	0.04	
0.4	0.4	0.04	
0	0.44	0.04	
0.04	0.44	0.04	
0.08	0.44	0.04	
0.12	0.44	0.04	
0.16	0.44	0.04	
0.2	0.44	0.04	
0.24	0.44	0.04	
0.28	0.44	0.04	
0.32	0.44	0.04	
0.36	0.44	0.04	
0.4	0.44	0.04	
0	0.48	0.04	
0.04	0.48	0.04	
0.08	0.48	0.04	
0.12	0.48	0.04	
0.16	0.48	0.04	
0.2	0.48	0.04	
0.24	0.48	0.04	
0.28	0.48	0.04	
0.32	0.48	0.04	
0.36	0.48	0.04	
0.4	0.48	0.04	
0	0.52	0.04	
0.04	0.52	0.04	
0.08	0.52	0.04	
0.12	0.52	0.04	
0.16	0.52	0.04	
0.2	0.52	0.04	
0.24	0.52	0.04	
0.28	0.52	0.04	
0.32	0.52	0.04	
0.36	0.52	0.04	
0.4	0.52	0.04	
0	0.56	0.04	
0.04	0.56	0.04	
0.08	0.56	0.04	
0.12	0.56	0.04	
0.16	0.56	0.04	
0.2	0.56	0.04	
0.24	0.56	0.04	
0.28	0.56	0.04	
0.32	0.56	0.04	
0.36	0.56	0.04	
0.4	0.56	0.04	
0	0.6	0.04	
0.04	0.6	0.04	
0.08	0.6	0.04	
0.12	0.6	0.04	
0.16	0.6	0.04	
0.2	0.6	0.04	
0.24	0.6	0.04	
0.28	0.6	0.04	
0.32	0.6	0.04	
0.36	0.6	0.04	
0.4	0.6	0.04	
0	0.64	0.04	
0.04	0.64	0.04	
0.08	0.64	0.04	
0.12	0.64	0.04	
0.16	0.64	0.04	
0.2	0.64	0.04	
0.24	0.64	0.04	
0.28	0.64	0.04	
0.32	0.64	0.04	
0.36	0.64	0.04	
0.4	0.64	0.04	
0	0.68	0.04	
0.04	0.68	0.04	
0.08	0.68	0.04	
0.12	0.68	0.04	
0.16	0.68	0.04	
0.2	0.68	0.04	
0.24	0.68	0.04	
0.28	0.68	0.04	
0.32	0.68	0.04	
0.36	0.68	0.04	
0.4	0.68	0.04	
0	0.72	0.04	
0.04	0.72	0.04	
0.08	0.72	0.04	
0.12	0.72	0.04	
0.16	0.72	0.04	
0.2	0.72	0.04	
0.24	0.72	0.04	
0.28	0.72	0.04	
0.32	0.72	0.04	
0.36	0.72	0.04	
0.4	0.72	0.04	
0	0.76	0.04	
0.04	0.76	0.04	
0.08	0.76	0.04	
0.12	0.76	0.04	
0.16	0.76	0.04	
0.2	0.76	0.04	
0.24	0.76	0.04	
0.28	0.76	0.04	
0.32	0.76	0.04	
0.36	0.76	0.04	
0.4	0.76	0.04	
0	0.8	0.04	
0.04	0.8	0.04	
0.08	0.8	0.04	
0.12	0.8	0.04	
0.16	0.8	0.04	
0.2	0.8	0.04	
0.24	0.8	0.04	
0.28	0.8	0.04	
0.32	0.8	0.04	
0.36	0.8	0.04	
0.4	0.8	0.04	
0	0.84	0.04	
0.04	0.84	0.04	
0.08	0.84	0.04	
0.12	0.84	0.04	
0.16	0.84	0.04	
0.2	0.84	0.04	
0.24	0.84	0.04	
0.28	0.84	0.04	
0.32	0.84	0.04	
0.36	0.84	0.04	
0.4	0.84	0.04	
0	0.88	0.04	
0.04	0.88	0.04	
0.08	0.88	0.04	
0.12	0.88	0.04	
0.16	0.88	0.04	
0.2	0.88	0.04	
0.24	0.88	0.04	
0.28	0.88	0.04	
0.32	0.88	0.04	
0.36	0.88	0.04	
0.4	0.88	0.04	
0	0.92	0.04	
0.04	0.92	0.04	
0.08	0.92	0.04	
0.12	0.92	0.04	
0.16	0.92	0.04	
0.2	0.92	0.04	
0.24	0.92	0.04	
0.28	0.92	0.04	
0.32	0.92	0.04	
0.36	0.92	0.04	
0.4	0.92	0.04	
0	0.96	0.04	
0.04	0.96	0.04	
0.08	0.96	0.04	
0.12	0.96	0.04	
0.16	0.96	0.04	
0.2	0.96	0.04	
0.24	0.96	0.04	
0.28	0.96	0.04	
0.32	0.96	0.04	
0.36	0.96	0.04	
0.4	0.96	0.04	
0	1	0.04	
0.04	1	0.04	
0.08	1	0.04	
0.12	1	0.04	
0.16	1	0.04	
0.2	1	0.04	
0.24	1	0.04	
0.28	1	0.04	
0.32	1	0.04	
0.36	1	0.04	
0.4	1	0.04	
0	0	0.08	
0.04	0	0.08	
0.08	0	0.08	
0.12	0	0.08	
0.16	0	0.08	
0.2	0	0.08	
0.24	0	0.08	
0.28	0	0.08	
0.32	0	0.08	
0.36	0	0.08	
0.4	0	0.08	
0	0.04	0.08	
0.04	0.04	0.08	
0.08	0.04	0.08	
0.12	0.04	0.08	
0.16	0.04	0.08	
0.2	0.04	0.08	
0.24	0.04	0.08	
0.28	0.04	0.08	
0.32	0.04	0.08	
0.36	0.04	0.08	
0.4	0.04	0.08	
0	0.08	0.08	
0.04	0.08	0.08	
0.08	0.08	0.08	
0.12	0.08	0.08	
0.16	0.08	0.08	
0.2	0.08	0.08	
0.24	0.08	0.08	
0.28	0.08	0.08	
0.32	0.08	0.08	
0.36	0.08	0.08	
0.4	0.08	0.08	
0	0.12	0.08	
0.04	0.12	0.08	
0.08	0.12	0.08	
0.12	0.12	0.08	
0.16	0.12	0.08	
0.2	0.12	0.08	
0.24	0.12	0.08	
0.28	0.12	0.08	
0.32	0.12	0.08	
0.36	0.12	0.08	
0.4	0.12	0.08	
0	0.16	0.08	
0.04	0.16	0.08	
0.08	0.16	0.08	
0.12	0.16	0.08	
0.16	0.16	0.08	
0.2	0.16	0.08	
0.24	0.16	0.08	
0.28	0.16	0.08	
0.32	0.16	0.08	
0.36	0.16	0.08	
0.4	0.16	0.08	
0	0.2	0.08	
0.04	0.2	0.08	
0.08	0.2	0.08	
0.12	0.2	0.08	
0.16	0.2	0.08	
0.2	0.2	0.08	
0.24	0.2	0.08	
0.28	0.2	0.08	
0.32	0.2	0.08	
0.36	0.2	0.08	
0.4	0.2	0.08	
0	0.24	0.08	
0.04	0.24	0.08	
0.08	0.24	0.08	
0.12	0.24	0.08	
0.16	0.24	0.08	
0.2	0.24	0.08	
0.24	0.24	0.08	
0.28	0.24	0.08	
0.32	0.24	0.08	
0.36	0.24	0.08	
0.4	0.24	0.08	
0	0.28	0.08	
0.04	0.28	0.08	
0.08	0.28	0.08	
0.12	0.28	0.08	
0.16	0.28	0.08	
0.2	0.28	0.08	
0.24	0.28	0.08	
0.28	0.28	0.08	
0.32	0.28	0.08	
0.36	0.28	0.08	
0.4	0.28	0.08	
0	0.32	0.08	
0.04	0.32	0.08	
0.08	0.32	0.08	
0.12	0.32	0.08	
0.16	0.32	0.08	
0.2	0.32	0.08	
0.24	0.32	0.08	
0.28	0.32	0.08	
0.32	0.32	0.08	
0.36	0.32	0.08	
0.4	0.32	0.08	
0	0.36	0.08	
0.04	0.36	0.08	
0.08	0.36	0.08	
0.12	0.36	0.08	
0.16	0.36	0.08	
0.2	0.36	0.08	
0.24	0.36	0.08	
0.28	0.36	0.08	
0.32	0.36	0.08	
0.36	0.36	0.08	
0.4	0.36	0.08	
0	0.4	0.08	
0.04	0.4	0.08	
0.08	0.4	0.08	
0.12	0.4	0.08	
0.16	0.4	0.08	
0.2	0.4	0.08	
0.24	0.4	0.08	
0.28	0.4	0.08	
0.32	0.4	0.08	
0.36	0.4	0.08	
0.4	0.4	0.08	
0	0.44	0.08	
0.04	0.44	0.08	
0.08	0.44	0.08	
0.12	0.44	0.08	
0.16	0.44	0.08	
0.2	0.44	0.08	
0.24	0.44	0.08	
0.28	0.44	0.08	
0.32	0.44	0.08	
0.36	0.44	0.08	
0.4	0.44	0.08	
0	0.48	0.08	
0.04	0.48	0.08	
0.08	0.48	0.08	
0.12	0.48	0.08	
0.16	0.48	0.08	
0.2	0.48	0.08	
[...]
POINT_DATA	14586
VECTORS u0 float
0	0	0
0.000299689	0	0
0.000770573	0	0
0.00118975	0	0
0.0015681	0	0
0.00193096	0	0
0.0022968	0	0
0.00268745	0	0
0.00313667	0	0
0.00375365	0	0
0.00471283	0	0
-0.000379512	-0.00209777	0
0.00034057	-0.00218111	0
0.000810476	-0.00222061	0
0.00120076	-0.00222469	0
0.00155911	-0.00221815	0
0.00190325	-0.00220215	0
0.00224933	-0.00217798	0
0.00261427	-0.00214568	0
0.00302274	-0.0021032	0
0.00351622	-0.00205995	0
0.00407407	-0.00180706	0
0.000151729	-0.00316408	0
0.000500023	-0.00331438	0
0.000881471	-0.0033282	0
0.00122472	-0.0033324	0
0.00154565	-0.00331945	0
0.00185631	-0.00329449	0
0.00216663	-0.00325809	0
0.00248602	-0.00320942	0
0.00282272	-0.00314522	0
0.00316871	-0.00304255	0
0.00350184	-0.00278122	0
0.000391702	-0.00377196	0
0.000676753	-0.00390058	0
0.000964931	-0.00393767	0
0.00125385	-0.00393774	0
0.00153303	-0.00392122	0
0.00180597	-0.00389031	0
0.00207691	-0.00384593	0
0.00234919	-0.00378622	0
0.00262236	-0.00370348	0
0.00289067	-0.00357438	0
0.00314735	-0.00334688	0
0.00057369	-0.00419905	0
0.000804664	-0.00430523	0
0.00104255	-0.00434474	0
0.00128182	-0.00434786	0
0.00151981	-0.00432893	0
0.00175469	-0.00429369	0
0.00198695	-0.0042428	0
0.00221661	-0.00417385	0
0.00244216	-0.00407946	0
0.00266068	-0.00394423	0
0.00286913	-0.00374063	0
0.000708445	-0.00452437	0
0.000904101	-0.00461125	0
0.00110253	-0.00464779	0
0.00130324	-0.00465093	0
0.00150402	-0.00463077	0
0.00170336	-0.00459209	0
0.00190008	-0.00453594	0
0.0020931	-0.00446027	0
0.00228097	-0.0043596	0
0.00246202	-0.00422401	0
0.00263552	-0.00403849	0
0.000813233	-0.00478763	0
0.000979814	-0.00485811	0
0.00114718	-0.00488908	0
0.00131561	-0.0048903	0
0.00148422	-0.00486831	0
0.00165169	-0.0048267	0
0.00181676	-0.00476643	0
0.00197815	-0.00468612	0
0.00213464	-0.00458205	0
0.00228534	-0.00444809	0
0.00243016	-0.00427594	0
0.000895769	-0.00500928	0
0.00103742	-0.00506604	0
0.00117831	-0.00509049	0
0.00131918	-0.00508841	0
0.00145969	-0.00506393	0
0.00159898	-0.00501951	0
0.00173601	-0.00495594	0
0.0018697	-0.00487235	0
0.00199913	-0.0047664	0
0.00212374	-0.00463441	0
0.00224358	-0.00447182	0
0.000961327	-0.00520193	0
0.00108055	-0.00524704	0
0.00119803	-0.00526478	0
0.00131458	-0.00525864	0
0.0014302	-0.00523114	0
0.00154439	-0.0051839	0
0.00165642	-0.0051175	0
0.00176548	-0.00503143	0
0.00187088	-0.00492426	0
0.00197221	-0.00479385	0
0.00206945	-0.00463773	0
0.00101334	-0.00537372	0
0.00111185	-0.0054088	0
0.00120798	-0.00542002	0
0.00130253	-0.00540945	0
0.00139569	-0.00537862	0
0.00148721	-0.00532852	0
0.00157662	-0.00525953	0
0.00166337	-0.00517134	0
0.00174693	-0.0050631	0
0.00182697	-0.00493359	0
0.0019033	-0.00478148	0
0.00105419	-0.00553026	0
0.0011332	-0.00555659	0
0.00120942	-0.00556161	0
0.00128364	-0.00554654	0
0.00135612	-0.00551222	0
0.00142682	-0.00545923	0
0.00149545	-0.00538773	0
0.00156163	-0.00529754	0
0.00162497	-0.00518813	0
0.00168515	-0.00505876	0
0.00174185	-0.00490867	0
0.00108561	-0.00567552	0
0.00114596	-0.00569413	0
0.0012033	-0.00569336	0
0.00125838	-0.00567388	0
0.00131151	-0.00563606	0
0.00136275	-0.00558016	0
0.00141196	-0.0055062	0
0.00145888	-0.005414	0
0.0015032	-0.00530315	0
0.00154461	-0.00517321	0
0.00158266	-0.00502359	0
0.00110887	-0.00581244	0
0.00115118	-0.00582419	0
0.00119038	-0.00581808	0
0.00122717	-0.00579438	0
0.0012619	-0.00575315	0
0.00129468	-0.00569438	0
0.00132546	-0.00561797	0
0.00135408	-0.00552367	0
0.00138028	-0.00541115	0
0.00140373	-0.00528001	0
0.00142392	-0.00512968	0
0.00112504	-0.00594323	0
0.00114972	-0.0059489	0
0.00117129	-0.00593793	0
0.0011904	-0.00591029	0
0.00120739	-0.00586578	0
0.00122243	-0.00580423	0
0.00123552	-0.00572539	0
0.00124654	-0.00562894	0
0.00125526	-0.00551451	0
0.00126138	-0.00538168	0
0.00126434	-0.00522978	0
0.00113501	-0.00606964	0
0.00114234	-0.00606996	0
0.00114663	-0.00605464	0
0.00114847	-0.00602339	0
0.00114821	-0.00597584	0
0.001146	-0.00591163	0
0.0011419	-0.00583041	0
0.00113581	-0.00573178	0
0.00112754	-0.00561529	0
0.00111679	-0.00548043	0
0.00110301	-0.00532637	0
0.00113966	-0.0061931	0
0.0011298	-0.00618882	0
0.00111702	-0.0061697	0
0.00110187	-0.00613523	0
0.00108465	-0.00608489	0
0.00106553	-0.0060182	0
0.00104456	-0.00593471	0
0.0010217	-0.00583392	0
0.000996774	-0.00571528	0
0.000969499	-0.00557819	0
0.000939354	-0.00542162	0
0.00113985	-0.00631489	0
0.00111286	-0.00630679	0
0.00108313	-0.00628444	0
0.00105114	-0.00624717	0
0.00101714	-0.00619435	0
0.000981298	-0.00612541	0
0.000943682	-0.00603978	0
0.000904255	-0.0059369	0
0.000862879	-0.00581613	0
0.000819307	-0.00567676	0
0.000773068	-0.00551753	0
0.00113647	-0.0064362	0
0.00109235	-0.00642509	0
0.00104571	-0.00640014	0
0.000996926	-0.00636053	0
0.000946222	-0.00630557	0
0.000893747	-0.00623462	0
0.00083957	-0.00614706	0
0.000783678	-0.00604223	0
0.000725966	-0.00591942	0
0.000666227	-0.0057778	0
0.000604065	-0.00561597	0
0.00113046	-0.00655824	0
0.00106916	-0.00654498	0
0.00100557	-0.00651805	0
0.000939969	-0.00647659	0
0.000872543	-0.00641987	0
0.000803425	-0.00634721	0
0.000732688	-0.00625795	0
0.000660343	-0.00615136	0
0.000586315	-0.00602667	0
0.000510449	-0.00588297	0
0.000432439	-0.0057187	0
0.00112283	-0.00668231	0
0.00104423	-0.00666779	0
0.00096359	-0.00663954	0
0.000881078	-0.00659671	0
0.000796834	-0.00653861	0
0.000710985	-0.00646456	0
0.000623613	-0.00637386	0
0.000534747	-0.00626577	0
0.000444346	-0.00613943	0
0.000352309	-0.00599388	0
0.00025843	-0.00582744	0
0.00111459	-0.0068099	0
0.00101855	-0.00679498	0
0.000920708	-0.00676604	0
0.000821117	-0.00672233	0
0.000719892	-0.00666324	0
0.000617157	-0.00658814	0
0.000513007	-0.00649632	0
0.000407489	-0.006387	0
0.000300591	-0.00625927	0
0.000192256	-0.00611215	0
8.239e-05	-0.00594392	0
0.00110676	-0.00694271	0
0.000993116	-0.00692823	0
0.000877862	-0.00689917	0
0.000760975	-0.00685502	0
0.000642553	-0.00679534	0
0.000522726	-0.00671955	0
0.000401602	-0.00662695	0
0.000279244	-0.0065167	0
0.00015566	-0.00638788	0
3.08237e-05	-0.0062395	0
-9.52496e-05	-0.00606987	0
0.00110029	-0.00708281	0
0.000968845	-0.00706946	0
0.00083594	-0.00704075	0
0.000701512	-0.00699657	0
0.000565666	-0.00693667	0
0.000428525	-0.00686055	0
0.00029019	-0.00676752	0
0.000150736	-0.0066567	0
1.02064e-05	-0.0065271	0
-0.000131415	-0.00637772	0
-0.000274025	-0.00620702	0
0.00109594	-0.00723265	0
0.000946481	-0.00722087	0
0.000795675	-0.00719287	0
0.000643516	-0.00714902	0
0.000490092	-0.00708925	0
0.000335459	-0.00701315	0
0.000179657	-0.00692002	0
2.27476e-05	-0.00680899	0
-0.000135143	-0.00667898	0
-0.000293922	-0.0065288	0
-0.000453588	-0.00635715	0
0.00109407	-0.00739527	0
0.000926336	-0.00738505	0
0.000757516	-0.00735804	0
0.00058768	-0.00731485	0
0.000416747	-0.00725552	0
0.000244592	-0.00717969	0
7.1106e-05	-0.0070867	0
-0.000103732	-0.0069757	0
-0.000279791	-0.00684564	0
-0.000456597	-0.00669511	0
-0.000633787	-0.00652192	0
0.00109345	-0.00757396	0
0.000907533	-0.00756514	0
0.000721252	-0.00753948	0
0.000534347	-0.00749721	0
0.000346397	-0.0074385	0
0.00015696	-0.00736302	0
-3.42982e-05	-0.00727022	0
-0.000227572	-0.00715929	0
-0.000422898	-0.00702921	0
-0.000620206	-0.00687887	0
-0.000818667	-0.00670358	0
-3.95376e-05	-0.00354097	-0.00110792
0.000431742	-0.00365392	-0.00124837
0.0008363	-0.00371382	-0.00125862
0.00121846	-0.00373834	-0.00124428
0.00157971	-0.00373482	-0.00123327
0.00192999	-0.00371043	-0.00122531
0.00228264	-0.00366699	-0.00122074
0.00265233	-0.00360278	-0.00122045
0.00305854	-0.00351045	-0.00122503
0.00350414	-0.00337517	-0.0012466
0.00386546	-0.00309077	-0.00100745
0.000188325	-0.00325428	-0.000117013
0.000488406	-0.00334208	-0.000267382
0.000870241	-0.00338063	-0.00025476
0.00122842	-0.00339366	-0.000245706
0.00156601	-0.00338577	-0.000238747
0.00189471	-0.0033623	-0.000237569
0.00222468	-0.00332472	-0.000242318
0.00256669	-0.00327199	-0.000253329
0.00293092	-0.00320036	-0.000269526
0.00330612	-0.00307936	-0.000275912
0.00361919	-0.00287143	-0.000102792
0.000262375	-0.00361356	-0.000149948
0.00059199	-0.00371551	-0.000248886
0.000923953	-0.00375461	-0.000262978
0.00124476	-0.00375928	-0.000259786
0.00155158	-0.00374662	-0.000256365
0.00185089	-0.00371909	-0.000255173
0.00214956	-0.00367778	-0.000256896
0.00245349	-0.00362146	-0.00026067
0.00276455	-0.00354347	-0.000261565
0.00307745	-0.00341915	-0.000242261
0.00337473	-0.00320581	-0.000129546
0.000451324	-0.00401497	-0.000171965
0.000715617	-0.0041235	-0.000232351
0.000992498	-0.0041596	-0.000248093
0.00126745	-0.00416278	-0.000250606
0.00153696	-0.00414609	-0.000249354
0.00180166	-0.00411406	-0.00024816
0.00206429	-0.00406727	-0.000247536
0.0023267	-0.00400364	-0.000246158
0.00258809	-0.00391579	-0.000239615
0.00284413	-0.00378609	-0.000216153
0.00308567	-0.00357732	-0.000146279
0.000602556	-0.00435389	-0.00017916
0.000827299	-0.00444941	-0.000215748
0.00105743	-0.00448682	-0.000229637
0.00129024	-0.0044898	-0.000233425
0.00152187	-0.00447099	-0.000233463
0.00175104	-0.00443509	-0.000232134
0.00197763	-0.00438295	-0.000229967
0.00220133	-0.00431229	-0.000225854
0.00242064	-0.00421672	-0.000216598
0.00263257	-0.00408305	-0.000195534
0.00283482	-0.00388936	-0.000149773
0.000724811	-0.00463606	-0.000171278
0.000916582	-0.00471635	-0.00019381
0.00111116	-0.00475077	-0.000204049
0.00130774	-0.00475331	-0.000207686
0.00150461	-0.00473287	-0.000207963
0.00170009	-0.0046938	-0.000206471
0.00189303	-0.00463703	-0.000203502
0.00208229	-0.00456074	-0.000198278
0.00226639	-0.00446001	-0.000188769
0.00244383	-0.00432616	-0.0001713
0.0026139	-0.0041464	-0.000139758
0.00082249	-0.0048745	-0.000153867
0.00098687	-0.00494071	-0.000167749
0.00115181	-0.00496999	-0.000174798
0.00131771	-0.00497047	-0.000177513
0.00148373	-0.00494813	-0.000177586
0.00164864	-0.00490622	-0.000175886
0.00181117	-0.00484567	-0.000172575
0.00197009	-0.00476521	-0.000167127
0.00212421	-0.00466147	-0.000158308
0.00227265	-0.00452895	-0.000144068
0.00241538	-0.00436036	-0.000121295
0.000900931	-0.00508079	-0.000130284
0.00104115	-0.00513458	-0.000138654
0.0011805	-0.00515775	-0.000143161
0.0013197	-0.005155	-0.000144833
0.00145848	-0.00513016	-0.000144498
0.00159603	-0.00508553	-0.000142603
0.00173135	-0.00502182	-0.000139199
0.00186339	-0.00493829	-0.000133939
0.00199124	-0.00483276	-0.000126076
0.00211435	-0.00470189	-0.000114439
0.00223276	-0.00454162	-9.73142e-05
0.000963924	-0.00526328	-0.000102646
0.00108221	-0.00530623	-0.0001074
0.00119866	-0.00532303	-0.00010998
0.00131407	-0.00531632	-0.000110695
0.00142851	-0.00528851	-0.000109921
0.00154151	-0.00524111	-0.000107854
0.00165236	-0.00517466	-0.000104482
0.00176027	-0.00508871	-9.95688e-05
0.00186459	-0.00498194	-9.26505e-05
0.00196488	-0.0048524	-8.30372e-05
0.00206108	-0.0046979	-6.96846e-05
0.00101427	-0.00542803	-7.22533e-05
0.00111216	-0.0054615	-7.45665e-05
0.00120758	-0.00547201	-7.57087e-05
0.00130135	-0.005461	-7.56263e-05
0.00139368	-0.00542991	-7.44532e-05
0.00148437	-0.00537969	-7.22478e-05
0.00157296	-0.00531069	-6.89643e-05
0.0016589	-0.00522265	-6.4434e-05
0.00174171	-0.00511477	-5.83536e-05
0.00182098	-0.00498592	-5.02976e-05
0.00189652	-0.00483501	-3.95468e-05
0.00105401	-0.00557951	-3.99062e-05
0.00113261	-0.00560461	-4.0532e-05
0.00120834	-0.0056091	-4.06031e-05
0.00128201	-0.00559368	-3.98799e-05
0.0013539	-0.00555917	-3.83707e-05
0.00142401	-0.00550609	-3.60621e-05
0.00149206	-0.00543461	-3.28875e-05
0.00155767	-0.00534457	-2.87184e-05
0.00162046	-0.00523546	-2.33511e-05
0.00168008	-0.00510662	-1.65e-05
0.00173615	-0.0049575	-7.60077e-06
0.00108466	-0.00572103	-6.08562e-06
0.00114476	-0.00573867	-5.51994e-06
0.00120177	-0.00573751	-4.7896e-06
0.00125645	-0.00571777	-3.56014e-06
0.00130916	-0.0056798	-1.77668e-06
0.00135998	-0.00562384	6.09746e-07
0.00140878	-0.00554992	3.67346e-06
0.00145529	-0.00545786	7.51746e-06
0.00149921	-0.00534728	1.22901e-05
0.00154018	-0.00521775	1.82014e-05
0.00157773	-0.005069	2.57367e-05
0.00110739	-0.00585511	2.89349e-05
0.00114957	-0.00586611	3.03617e-05
0.00118855	-0.0058597	3.17006e-05
0.00122505	-0.0058358	3.33289e-05
0.00125948	-0.00579446	3.53298e-05
0.00129196	-0.00573567	3.7772e-05
0.00132246	-0.0056593	4.07305e-05
0.00135078	-0.00556514	4.42909e-05
0.00137669	-0.00545286	4.85721e-05
0.0013998	-0.00532207	5.37387e-05
0.00141958	-0.00517255	6.02315e-05
0.00112319	-0.00598369	6.502e-05
0.00114782	-0.00598877	6.70838e-05
0.00116926	-0.00597759	6.88952e-05
0.00118816	-0.00594981	7.08402e-05
0.00120495	-0.00590523	7.30135e-05
0.00121979	-0.00584367	7.54944e-05
0.00123267	-0.00576489	7.83559e-05
0.00124348	-0.00566857	8.16723e-05
0.001252	-0.00555436	8.55441e-05
0.00125786	-0.00542183	9.0108e-05
0.00126049	-0.00527075	9.57741e-05
0.00113292	-0.00610837	0.000102131
0.00114026	-0.00610825	0.000104678
0.00114447	-0.00609277	0.000106862
0.00114619	-0.00606142	0.000109063
0.00114578	-0.00601382	0.000111379
0.00114344	-0.00594963	0.00011389
0.0011392	-0.00586848	0.000116663
0.00113297	-0.00576998	0.000119769
0.00112456	-0.00565369	0.000123294
0.00111362	-0.00551911	0.000127359
0.00109958	-0.00536589	0.000132343
0.00113742	-0.00623044	0.0001403
0.0011276	-0.00622584	0.000143222
0.0011148	-0.00620661	0.000145712
0.00109957	-0.00617207	0.000148125
0.00108227	-0.00612171	0.000150561
0.00106306	-0.00605506	0.000153094
0.00104202	-0.00597164	0.00015579
0.00101908	-0.00587098	0.000158713
0.000994067	-0.00575254	0.00016194
0.000966663	-0.00561571	0.000165581
0.000936323	-0.00546004	0.00016998
0.00113752	-0.00635112	0.000179613
0.00111061	-0.0063428	0.000182836
0.00108089	-0.00632038	0.000185586
0.00104886	-0.00628307	0.000188182
0.00101483	-0.00623025	0.00019072
0.000978956	-0.00616135	0.000193272
0.000941307	-0.00607581	0.000195899
0.000901846	-0.00597306	0.000198661
0.000860437	-0.00585249	0.000201629
0.00081679	-0.00571337	0.0002049
0.000770422	-0.0055551	0.00020878
0.0011341	-0.00647154	0.000220199
0.00109008	-0.00646029	0.000223675
0.00104348	-0.00643529	0.000226654
0.000994702	-0.00639566	0.000229414
0.000944005	-0.00634072	0.000232043
0.000891539	-0.00626982	0.000234612
0.00083737	-0.00618236	0.000237179
0.00078149	-0.00607767	0.000239799
0.000723788	-0.00595506	0.000242537
0.000664028	-0.00581369	0.000245478
0.000601804	-0.00565287	0.000248878
0.0011281	-0.00659285	0.00026223
0.0010669	-0.00657953	0.000265928
0.00100337	-0.00655257	0.000269119
0.000937816	-0.0065111	0.000272029
0.000870435	-0.00645441	0.000274743
0.000801363	-0.00638181	0.00027733
0.000730673	-0.00629266	0.000279841
0.000658383	-0.00618622	0.000282332
0.000584408	-0.00606173	0.000284863
0.000508572	-0.00591828	0.000287503
0.000430569	-0.00575508	0.000290449
0.0011205	-0.00671635	0.000305919
0.00104201	-0.00670181	0.000309821
0.000961447	-0.00667354	0.000313211
0.00087901	-0.00663072	0.000316262
0.000794845	-0.00657265	0.000319056
0.000709078	-0.00649868	0.000321658
0.000621791	-0.00640809	0.00032412
0.00053302	-0.00630015	0.000326497
0.000442714	-0.00617402	0.000328837
0.000350761	-0.00602873	0.000331196
0.000256961	-0.00586341	0.000333706
0.0011123	-0.00684346	0.000351521
0.00101637	-0.00682858	0.000355619
0.000918626	-0.00679962	0.000359203
0.000819139	-0.00675592	0.000362389
0.000718028	-0.00669688	0.000365257
0.000615411	-0.00662186	0.000367875
0.000511387	-0.00653016	0.000370296
0.000406	-0.00642099	0.000372568
0.00029924	-0.00629348	0.000374731
0.000191044	-0.00614662	0.000376824
8.13328e-05	-0.00597955	0.000378905
0.00110452	-0.0069759	0.000399348
0.00099097	-0.00696147	0.000403644
0.00087584	-0.0069324	0.000407413
0.000759089	-0.00688827	0.000410722
0.000640817	-0.00682863	0.000413658
0.000521145	-0.00675292	0.000416292
0.000400184	-0.00666045	0.000418679
0.000277996	-0.00655037	0.000420859
0.000154594	-0.00642177	0.00042286
2.99549e-05	-0.00627366	0.000424699
-9.58837e-05	-0.00610522	0.000426351
0.00109809	-0.00711567	0.000449779
0.000966736	-0.00710238	0.000454277
0.00083397	-0.00707367	0.000458216
0.000699715	-0.00702951	0.000461627
0.000564054	-0.00696967	0.000464613
0.000427107	-0.00689365	0.000467258
0.000288973	-0.00680074	0.000469619
0.000149732	-0.00669009	0.00047173
9.42766e-06	-0.00656073	0.000473595
-0.000131931	-0.00641163	0.000475194
-0.000274223	-0.00624216	0.000476412
0.00109377	-0.00726521	0.000503289
0.000944393	-0.00725351	0.000507978
0.000793755	-0.00722552	0.00051205
0.000641803	-0.0071817	0.000515523
0.000488599	-0.00712199	0.000518531
0.0003342	-0.00704599	0.000521177
0.000178644	-0.00695299	0.000523527
2.1996e-05	-0.00684214	0.000525608
-0.00013562	-0.00671237	0.000527392
-0.000294079	-0.00656252	0.000528786
-0.000453304	-0.00639215	0.000529551
0.00109186	-0.0074274	0.000560517
0.00092427	-0.00741744	0.000565307
0.000755637	-0.00739043	0.000569428
0.000586032	-0.00734729	0.0005729
0.000415356	-0.00728804	0.000575892
0.000243473	-0.00721232	0.000578533
7.02788e-05	-0.00711947	0.000580897
-0.000104244	-0.00700867	0.000583011
-0.000279938	-0.00687887	0.000584832
-0.000456367	-0.0067287	0.000586162
-0.000633062	-0.00655718	0.000586318
0.00109239	-0.00760536	0.000622138
0.000906072	-0.00759722	0.000626894
0.000719872	-0.00757161	0.00063101
0.000533224	-0.00752943	0.000634429
0.000345567	-0.00747083	0.000637404
0.00015645	-0.0073955	0.000640077
-3.44591e-05	-0.00730288	0.000642532
-0.000227341	-0.00719219	0.000644807
-0.000422194	-0.00706245	0.000646876
-0.000618628	-0.00691242	0.00064868
-0.000815357	-0.0067401	0.000648885
0.000492814	-0.00476204	-0.00181214
0.000690477	-0.00477223	-0.00199333
0.000975741	-0.00480873	-0.00201141
0.00128861	-0.00482177	-0.00200134
0.00160649	-0.00481167	-0.00198662
0.00192367	-0.00477969	-0.00197548
0.00224167	-0.00472682	-0.00196891
0.00256237	-0.0046517	-0.00196613
0.00287901	-0.00455088	-0.00196289
0.00314878	-0.00441398	-0.00191433
0.00335429	-0.00431138	-0.00169023
0.000432486	-0.00461293	-0.000942796
0.000715109	-0.0046509	-0.00111038
0.000993497	-0.00468973	-0.00115198
0.0012891	-0.00470152	-0.00114865
0.00158612	-0.00469005	-0.00114109
0.00188201	-0.00465816	-0.00113572
0.00217793	-0.00460708	-0.00113451
0.00247438	-0.00453539	-0.00113564
0.00276493	-0.00443628	-0.00113024
0.00303245	-0.00430286	-0.00107231
0.00329144	-0.00415607	-0.000863317
0.000498574	-0.00450045	-0.00057795
0.000749458	-0.00456029	-0.000705281
0.00101829	-0.00459086	-0.000740765
0.00129243	-0.00459824	-0.000744819
0.00156593	-0.00458394	-0.000741476
0.00183736	-0.00455149	-0.000738528
0.00210753	-0.00450163	-0.000737363
0.0023763	-0.00443259	-0.000735451
0.0026409	-0.00433856	-0.000722994
0.00289433	-0.00421281	-0.00067137
0.00312786	-0.00405031	-0.000520922
0.000576109	-0.00459452	-0.00048364
0.000811766	-0.00466543	-0.000571878
0.00105449	-0.00469716	-0.000603432
0.00130079	-0.00470069	-0.000610963
0.00154629	-0.00468358	-0.000610422
0.00178988	-0.00464881	-0.000607771
0.00203134	-0.00459703	-0.000604235
0.00227013	-0.0045264	-0.000597323
0.0025044	-0.00443207	-0.000579368
0.00273026	-0.00430497	-0.000533114
0.00294513	-0.00413443	-0.000425128
0.000675271	-0.00476089	-0.000431187
0.000883115	-0.00483285	-0.000489493
0.00109584	-0.00486364	-0.000514157
0.00131116	-0.00486571	-0.000522235
0.00152672	-0.0048463	-0.000522805
0.00174083	-0.00480883	-0.000520015
0.00195253	-0.00475395	-0.00051469
0.0021608	-0.00468005	-0.000504918
0.00236395	-0.00458275	-0.000485441
0.00255996	-0.00445443	-0.000446089
0.00274732	-0.00428425	-0.000369575
0.000767656	-0.00494211	-0.000384334
0.000949754	-0.00500766	-0.000422025
0.00113382	-0.00503632	-0.000440164
0.00131969	-0.00503696	-0.000446942
0.00150591	-0.00501567	-0.000447509
0.00169101	-0.00497559	-0.000444382
0.00187374	-0.00491747	-0.000438056
0.00205283	-0.00484001	-0.000427182
0.00222693	-0.00473977	-0.000408379
0.0023948	-0.00461096	-0.000375756
0.00255627	-0.00444597	-0.00032037
0.000848195	-0.00511846	-0.000333171
0.00100631	-0.0051752	-0.00035714
0.00116463	-0.00519991	-0.000369577
0.00132358	-0.00519841	-0.000374426
0.00148251	-0.00517508	-0.000374376
0.00164033	-0.00513248	-0.000370861
0.00179588	-0.00507133	-0.000364115
0.00194799	-0.00499073	-0.000353218
0.00209559	-0.00488821	-0.000336059
0.00223795	-0.00475986	-0.000309239