# vtk DataFile Version 4.1
vtk output
ASCII
DATASET UNSTRUCTURED_GRID

POINTS	11	float
0	0	0.0	
100	0	0.0	
200	0	0.0	
300	0	0.0	
400	0	0.0	
500	0	0.0	
600	0	0.0	
700	0	0.0	
800	0	0.0	
900	0	0.0	
1000	0	0.0	

CELLS 10	30
2	0	1	
2	1	2	
2	2	3	
2	3	4	
2	4	5	
2	5	6	
2	6	7	
2	7	8	
2	8	9	
2	9	10	

CELL_TYPES	10
3
3
3
3
3
3
3
3
3
3

POINT_DATA	11
VECTORS u0 float
0	0	0
0	-2.81666	-0.055362
0	-10.8781	-0.104896
0	-23.6017	-0.148603
0	-40.4045	-0.186482
0	-60.7039	-0.218534
0	-83.9171	-0.244758
0	-109.461	-0.265155
0	-136.754	-0.279724
0	-165.212	-0.288465
0	-194.252	-0.291379
