# vtk DataFile Version 4.1
vtk output
ASCII
DATASET UNSTRUCTURED_GRID

POINTS	55	float
0	0	0.0	
0	0.5	0.0	
0	1	0.0	
0	1.5	0.0	
0	2	0.0	
5	0	0.0	
5	0.5	0.0	
5	1	0.0	
5	1.5	0.0	
5	2	0.0	
10	0	0.0	
10	0.5	0.0	
10	1	0.0	
10	1.5	0.0	
10	2	0.0	
15	0	0.0	
15	0.5	0.0	
15	1	0.0	
15	1.5	0.0	
15	2	0.0	
20	0	0.0	
20	0.5	0.0	
20	1	0.0	
20	1.5	0.0	
20	2	0.0	
25	0	0.0	
25	0.5	0.0	
25	1	0.0	
25	1.5	0.0	
25	2	0.0	
30	0	0.0	
30	0.5	0.0	
30	1	0.0	
30	1.5	0.0	
30	2	0.0	
35	0	0.0	
35	0.5	0.0	
35	1	0.0	
35	1.5	0.0	
35	2	0.0	
40	0	0.0	
40	0.5	0.0	
40	1	0.0	
40	1.5	0.0	
40	2	0.0	
45	0	0.0	
45	0.5	0.0	
45	1	0.0	
45	1.5	0.0	
45	2	0.0	
50	0	0.0	
50	0.5	0.0	
50	1	0.0	
50	1.5	0.0	
50	2	0.0	

CELLS 40	200
4	0	5	6	1	
4	1	6	7	2	
4	2	7	8	3	
4	3	8	9	4	
4	5	10	11	6	
4	6	11	12	7	
4	7	12	13	8	
4	8	13	14	9	
4	10	15	16	11	
4	11	16	17	12	
4	12	17	18	13	
4	13	18	19	14	
4	15	20	21	16	
4	16	21	22	17	
4	17	22	23	18	
4	18	23	24	19	
4	20	25	26	21	
4	21	26	27	22	
4	22	27	28	23	
4	23	28	29	24	
4	25	30	31	26	
4	26	31	32	27	
4	27	32	33	28	
4	28	33	34	29	
4	30	35	36	31	
4	31	36	37	32	
4	32	37	38	33	
4	33	38	39	34	
4	35	40	41	36	
4	36	41	42	37	
4	37	42	43	38	
4	38	43	44	39	
4	40	45	46	41	
4	41	46	47	42	
4	42	47	48	43	
4	43	48	49	44	
4	45	50	51	46	
4	46	51	52	47	
4	47	52	53	48	
4	48	53	54	49	

CELL_TYPES	40
5
5
5
5
5
5
5
5
5
5
5
5
5
5
5
5
5
5
5
5
5
5
5
5
5
5
5
5
5
5
5
5
5
5
5
5
5
5
5
5

POINT_DATA	55
VECTORS u0 float
0	0	0
34.5169	-0.796154	0
67.9181	-1.42242	0
100.694	-1.80824	0
133.276	-1.93562	0
25.5067	-304.893	0
50.4127	-304.664	0
75.3215	-304.461	0
100.34	-304.328	0
125.624	-304.282	0
65.849	-478.38	0
74.3396	-478.442	0
82.7462	-478.499	0
91.14	-478.541	0
99.5713	-478.558	0
110.913	-465.795	0
100.086	-465.776	0
89.3511	-465.758	0
78.6152	-465.749	0
67.7923	-465.746	0
146.585	-274.972	0
120.793	-274.975	0
95.2043	-274.978	0
69.6173	-274.982	0
43.8279	-274.984	0
161.987	20.6663	0
130.997	20.6665	0
100.247	20.6672	0
69.4952	20.6679	0
38.5021	20.6682	0
153.363	309.856	0
128.799	309.858	0
104.428	309.858	0
80.06	309.859	0
55.502	309.861	0
125.51	484.228	0
116.588	484.213	0
107.726	484.203	0
98.8588	484.201	0
89.9192	484.202	0
90.1016	478.359	0
100.121	478.413	0
110.084	478.448	0
120.06	478.469	0
130.12	478.476	0
61.1404	294.91	0
86.4493	294.692	0
111.538	294.54	0
136.609	294.456	0
161.868	294.431	0
49.9812	0	0
81.2015	0.822833	0
112.061	1.40915	0
142.844	1.74321	0
173.831	1.84762	0
