# vtk DataFile Version 4.1
vtk output
ASCII
DATASET UNSTRUCTURED_GRID

POINTS	55	float
0	0	0.0	
0	0.5	0.0	
0	1	0.0	
0	1.5	0.0	
0	2	0.0	
5	0	0.0	
5	0.5	0.0	
5	1	0.0	
5	1.5	0.0	
5	2	0.0	
10	0	0.0	
10	0.5	0.0	
10	1	0.0	
10	1.5	0.0	
10	2	0.0	
15	0	0.0	
15	0.5	0.0	
15	1	0.0	
15	1.5	0.0	
15	2	0.0	
20	0	0.0	
20	0.5	0.0	
20	1	0.0	
20	1.5	0.0	
20	2	0.0	
25	0	0.0	
25	0.5	0.0	
25	1	0.0	
25	1.5	0.0	
25	2	0.0	
30	0	0.0	
30	0.5	0.0	
30	1	0.0	
30	1.5	0.0	
30	2	0.0	
35	0	0.0	
35	0.5	0.0	
35	1	0.0	
35	1.5	0.0	
35	2	0.0	
40	0	0.0	
40	0.5	0.0	
40	1	0.0	
40	1.5	0.0	
40	2	0.0	
45	0	0.0	
45	0.5	0.0	
45	1	0.0	
45	1.5	0.0	
45	2	0.0	
50	0	0.0	
50	0.5	0.0	
50	1	0.0	
50	1.5	0.0	
50	2	0.0	

CELLS 40	200
4	0	5	6	1	
4	1	6	7	2	
4	2	7	8	3	
4	3	8	9	4	
4	5	10	11	6	
4	6	11	12	7	
4	7	12	13	8	
4	8	13	14	9	
4	10	15	16	11	
4	11	16	17	12	
4	12	17	18	13	
4	13	18	19	14	
4	15	20	21	16	
4	16	21	22	17	
4	17	22	23	18	
4	18	23	24	19	
4	20	25	26	21	
4	21	26	27	22	
4	22	27	28	23	
4	23	28	29	24	
4	25	30	31	26	
4	26	31	32	27	
4	27	32	33	28	
4	28	33	34	29	
4	30	35	36	31	
4	31	36	37	32	
4	32	37	38	33	
4	33	38	39	34	
4	35	40	41	36	
4	36	41	42	37	
4	37	42	43	38	
4	38	43	44	39	
4	40	45	46	41	
4	41	46	47	42	
4	42	47	48	43	
4	43	48	49	44	
4	45	50	51	46	
4	46	51	52	47	
4	47	52	53	48	
4	48	53	54	49	

CELL_TYPES	40
9
9
9
9
9
9
9
9
9
9
9
9
9
9
9
9
9
9
9
9
9
9
9
9
9
9
9
9
9
9
9
9
9
9
9
9
9
9
9
9

POINT_DATA	55
VECTORS u0 float
0	0	0
0	-4.49871e-05	0
0	-7.45641e-05	0
0	-8.95676e-05	0
0	-9.25328e-05	0
-3.55646e-06	-0.000736259	0
-1.03624e-05	-0.000721634	0
-3.7045e-05	-0.00071429	0
-6.54573e-05	-0.000712222	0
-7.80718e-05	-0.00071358	0
0.000552106	0.000830279	0
0.000244291	0.000826253	0
-5.75463e-05	0.00082529	0
-0.00035878	0.000824643	0
-0.000664266	0.000827423	0
0.00175047	0.00645067	0
0.000856979	0.00645133	0
-4.49015e-05	0.00645155	0
-0.000947027	0.00645065	0
-0.00184198	0.0064505	0
0.00341621	0.0193806	0
0.00170502	0.0193806	0
-1.07102e-05	0.0193822	0
-0.00172655	0.0193814	0
-0.00343738	0.0193819	0
0.00495254	0.0403367	0
0.00248728	0.0403367	0
3.18797e-05	0.0403371	0
-0.00242335	0.0403349	0
-0.00488846	0.0403347	0
0.00640173	0.0687337	0
0.00322715	0.0687334	0
5.59048e-05	0.0687348	0
-0.00311529	0.0687336	0
-0.00628963	0.0687343	0
0.00725227	0.102895	0
0.00365205	0.102894	0
4.96464e-05	0.102895	0
-0.00355265	0.102894	0
-0.00715273	0.102896	0
0.00764096	0.140015	0
0.00382177	0.140016	0
1.53908e-05	0.140017	0
-0.00379087	0.140016	0
-0.0076099	0.140015	0
0.00778775	0.179072	0
0.00388168	0.179069	0
-2.51214e-05	0.17907	0
-0.00393198	0.179069	0
-0.0078381	0.179071	0
0.0076016	0.217498	0
0.00377983	0.217498	0
-5.2082e-05	0.217494	0
-0.0038843	0.217499	0
-0.00770711	0.217499	0
