# vtk DataFile Version 4.1
vtk output
ASCII
DATASET UNSTRUCTURED_GRID

POINTS	149	float
0	0	0.0	
0	0.5	0.0	
0	1	0.0	
0	1.5	0.0	
0	2	0.0	
5	0	0.0	
5	0.5	0.0	
5	1	0.0	
5	1.5	0.0	
5	2	0.0	
10	0	0.0	
10	0.5	0.0	
10	1	0.0	
10	1.5	0.0	
10	2	0.0	
15	0	0.0	
15	0.5	0.0	
15	1	0.0	
15	1.5	0.0	
15	2	0.0	
20	0	0.0	
20	0.5	0.0	
20	1	0.0	
20	1.5	0.0	
20	2	0.0	
25	0	0.0	
25	0.5	0.0	
25	1	0.0	
25	1.5	0.0	
25	2	0.0	
30	0	0.0	
30	0.5	0.0	
30	1	0.0	
30	1.5	0.0	
30	2	0.0	
35	0	0.0	
35	0.5	0.0	
35	1	0.0	
35	1.5	0.0	
35	2	0.0	
40	0	0.0	
40	0.5	0.0	
40	1	0.0	
40	1.5	0.0	
40	2	0.0	
45	0	0.0	
45	0.5	0.0	
45	1	0.0	
45	1.5	0.0	
45	2	0.0	
50	0	0.0	
50	0.5	0.0	
50	1	0.0	
50	1.5	0.0	
50	2	0.0	
2.5	0	0.0	
5	0.25	0.0	
2.5	0.5	0.0	
0	0.25	0.0	
5	0.75	0.0	
2.5	1	0.0	
0	0.75	0.0	
5	1.25	0.0	
2.5	1.5	0.0	
0	1.25	0.0	
5	1.75	0.0	
2.5	2	0.0	
0	1.75	0.0	
7.5	0	0.0	
10	0.25	0.0	
7.5	0.5	0.0	
10	0.75	0.0	
7.5	1	0.0	
10	1.25	0.0	
7.5	1.5	0.0	
10	1.75	0.0	
7.5	2	0.0	
12.5	0	0.0	
15	0.25	0.0	
12.5	0.5	0.0	
15	0.75	0.0	
12.5	1	0.0	
15	1.25	0.0	
12.5	1.5	0.0	
15	1.75	0.0	
12.5	2	0.0	
17.5	0	0.0	
20	0.25	0.0	
17.5	0.5	0.0	
20	0.75	0.0	
17.5	1	0.0	
20	1.25	0.0	
17.5	1.5	0.0	
20	1.75	0.0	
17.5	2	0.0	
22.5	0	0.0	
25	0.25	0.0	
22.5	0.5	0.0	
25	0.75	0.0	
22.5	1	0.0	
25	1.25	0.0	
22.5	1.5	0.0	
25	1.75	0.0	
22.5	2	0.0	
27.5	0	0.0	
30	0.25	0.0	
27.5	0.5	0.0	
30	0.75	0.0	
27.5	1	0.0	
30	1.25	0.0	
27.5	1.5	0.0	
30	1.75	0.0	
27.5	2	0.0	
32.5	0	0.0	
35	0.25	0.0	
32.5	0.5	0.0	
35	0.75	0.0	
32.5	1	0.0	
35	1.25	0.0	
32.5	1.5	0.0	
35	1.75	0.0	
32.5	2	0.0	
37.5	0	0.0	
40	0.25	0.0	
37.5	0.5	0.0	
40	0.75	0.0	
37.5	1	0.0	
40	1.25	0.0	
37.5	1.5	0.0	
40	1.75	0.0	
37.5	2	0.0	
42.5	0	0.0	
45	0.25	0.0	
42.5	0.5	0.0	
45	0.75	0.0	
42.5	1	0.0	
45	1.25	0.0	
42.5	1.5	0.0	
45	1.75	0.0	
42.5	2	0.0	
47.5	0	0.0	
50	0.25	0.0	
47.5	0.5	0.0	
50	0.75	0.0	
47.5	1	0.0	
50	1.25	0.0	
47.5	1.5	0.0	
50	1.75	0.0	
47.5	2	0.0	

CELLS 40	360
8	0	5	6	1	55	56	57	58	
8	1	6	7	2	57	59	60	61	
8	2	7	8	3	60	62	63	64	
8	3	8	9	4	63	65	66	67	
8	5	10	11	6	68	69	70	56	
8	6	11	12	7	70	71	72	59	
8	7	12	13	8	72	73	74	62	
8	8	13	14	9	74	75	76	65	
8	10	15	16	11	77	78	79	69	
8	11	16	17	12	79	80	81	71	
8	12	17	18	13	81	82	83	73	
8	13	18	19	14	83	84	85	75	
8	15	20	21	16	86	87	88	78	
8	16	21	22	17	88	89	90	80	
8	17	22	23	18	90	91	92	82	
8	18	23	24	19	92	93	94	84	
8	20	25	26	21	95	96	97	87	
8	21	26	27	22	97	98	99	89	
8	22	27	28	23	99	100	101	91	
8	23	28	29	24	101	102	103	93	
8	25	30	31	26	104	105	106	96	
8	26	31	32	27	106	107	108	98	
8	27	32	33	28	108	109	110	100	
8	28	33	34	29	110	111	112	102	
8	30	35	36	31	113	114	115	105	
8	31	36	37	32	115	116	117	107	
8	32	37	38	33	117	118	119	109	
8	33	38	39	34	119	120	121	111	
8	35	40	41	36	122	123	124	114	
8	36	41	42	37	124	125	126	116	
8	37	42	43	38	126	127	128	118	
8	38	43	44	39	128	129	130	120	
8	40	45	46	41	131	132	133	123	
8	41	46	47	42	133	134	135	125	
8	42	47	48	43	135	136	137	127	
8	43	48	49	44	137	138	139	129	
8	45	50	51	46	140	141	142	132	
8	46	51	52	47	142	143	144	134	
8	47	52	53	48	144	145	146	136	
8	48	53	54	49	146	147	148	138	

CELL_TYPES	40
23
23
23
23
23
23
23
23
23
23
23
23
23
23
23
23
23
23
23
23
23
23
23
23
23
23
23
23
23
23
23
23
23
23
23
23
23
23
23
23

POINT_DATA	149
VECTORS u0 float
0	0	0
-59.0919	1.61579	0
-110.716	3.33243	0
-159.949	4.23589	0
-210.813	4.39149	0
-83.9576	374.662	0
-104.09	375.06	0
-123.226	375.556	0
-142.32	375.784	0
-161.847	375.813	0
-176.633	366.917	0
-155.963	367.002	0
-136.153	367.098	0
-116.379	367.107	0
-95.7328	367.089	0
-230.102	38.6437	0
-188.27	38.6542	0
-148.007	38.6636	0
-107.753	38.662	0
-65.9388	38.659	0
-215.93	-333.999	0
-186.672	-334.016	0
-158.491	-334.035	0
-130.312	-334.016	0
-101.057	-333.998	0
-154.735	-453.293	0
-161.244	-453.317	0
-167.53	-453.344	0
-173.816	-453.318	0
-180.325	-453.293	0
-101.514	-223.261	0
-138.946	-223.273	0
-175.039	-223.286	0
-211.132	-223.274	0
-248.563	-223.262	0
-103.549	179.073	0
-142.96	179.087	0
-180.952	179.096	0
-218.944	179.084	0
-258.346	179.073	0
-163.871	442.21	0
-174.758	442.266	0
-185.225	442.301	0
-195.681	442.273	0
-206.519	442.246	0
-238.918	362.23	0
-212.938	362.478	0
-187.816	362.636	0
-162.651	362.66	0
-136.528	362.64	0
-272.983	0	0
-229.704	1.47091	0
-188.463	2.50977	0
-147.477	2.96156	0
-105.055	3.01927	0
-42.0269	231.958	0
-93.9222	374.871	0
-78.7854	231.551	0
-30.1361	0.80019	0
-113.601	375.301	0
-116.024	231.034	0
-85.2125	2.49253	0
-132.747	375.658	0
-153.272	230.768	0
-135.364	3.81091	0
-152.082	375.794	0
-190.573	230.73	0
-185.145	4.32903	0
-131.439	421.92	0
-166.256	366.959	0
-130.598	421.84	0
-146.052	367.05	0
-129.82	421.745	0
-126.296	367.103	0
-129	421.741	0
-106.125	367.101	0
-128.124	421.763	0
-207.8	229.415	0
-209.037	38.6495	0
-174.941	229.39	0
-168.088	38.6583	0
-142.259	229.368	0
-127.925	38.6619	0
-109.568	229.381	0
-86.9878	38.6603	0
-76.6901	229.398	0
-227.827	-163.459	0
-201.207	-334.009	0
-190.529	-163.449	0
-172.551	-334.024	0
-153.428	-163.438	0
-144.434	-334.024	0
-116.326	-163.448	0
-115.78	-334.009	0
-79.0252	-163.458	0
-187.014	-438.571	0
-158.009	-453.307	0
-175.074	-438.541	0
-164.393	-453.329	0
-163.197	-438.515	0
-170.666	-453.329	0
-151.321	-438.541	0
-177.05	-453.307	0
-139.38	-438.571	0
-125.55	-377.12	0
-120.35	-223.268	0
-148.575	-377.094	0
-157.032	-223.278	0
-171.48	-377.071	0
-193.046	-223.279	0
-194.385	-377.094	0
-229.727	-223.269	0
-217.41	-377.12	0
-97.8659	-24.5719	0
-123.383	179.08	0
-138.136	-24.5706	0
-161.999	179.09	0
-178.198	-24.5687	0
-199.906	179.089	0
-218.26	-24.5697	0
-238.518	179.079	0
-258.531	-24.5712	0
-130.75	346.522	0
-169.345	442.241	0
-157.086	346.495	0
-180.001	442.284	0
-183.291	346.474	0
-190.441	442.288	0
-209.496	346.497	0
-201.065	442.262	0
-235.84	346.522	0
-202.651	448.793	0
-225.858	362.352	0
-194.639	448.736	0
-200.357	362.548	0
-186.7	448.701	0
-175.264	362.639	0
-178.774	448.731	0
-149.676	362.647	0
-170.813	448.764	0
-260.464	203.566	0
-251.147	0.747931	0
-224.292	203.346	0
-209.001	2.01687	0
-188.395	203.199	0
-168	2.76258	0
-152.56	203.158	0
-126.401	3.00398	0
-116.553	203.168	0
