# vtk DataFile Version 4.1
vtk output
ASCII
DATASET UNSTRUCTURED_GRID

POINTS	9950	float
0	0	0.0	
0	0.0816327	0.0	
0	0.163265	0.0	
0	0.244898	0.0	
0	0.326531	0.0	
0	0.408163	0.0	
0	0.489796	0.0	
0	0.571429	0.0	
0	0.653061	0.0	
0	0.734694	0.0	
0	0.816327	0.0	
0	0.897959	0.0	
0	0.979592	0.0	
0	1.06122	0.0	
0	1.14286	0.0	
0	1.22449	0.0	
0	1.30612	0.0	
0	1.38776	0.0	
0	1.46939	0.0	
0	1.55102	0.0	
0	1.63265	0.0	
0	1.71429	0.0	
0	1.79592	0.0	
0	1.87755	0.0	
0	1.95918	0.0	
0	2.04082	0.0	
0	2.12245	0.0	
0	2.20408	0.0	
0	2.28571	0.0	
0	2.36735	0.0	
0	2.44898	0.0	
0	2.53061	0.0	
0	2.61224	0.0	
0	2.69388	0.0	
0	2.77551	0.0	
0	2.85714	0.0	
0	2.93878	0.0	
0	3.02041	0.0	
0	3.10204	0.0	
0	3.18367	0.0	
0	3.26531	0.0	
0	3.34694	0.0	
0	3.42857	0.0	
0	3.5102	0.0	
0	3.59184	0.0	
0	3.67347	0.0	
0	3.7551	0.0	
0	3.83673	0.0	
0	3.91837	0.0	
0	4	0.0	
0.000740205	4.09424	0.0	
0.00296064	4.18846	0.0	
0.00666075	4.28264	0.0	
0.0118396	4.37674	0.0	
0.018496	4.47075	0.0	
0.0266282	4.56465	0.0	
0.0362343	4.65841	0.0	
0.0473118	4.752	0.0	
0.0598581	4.84541	0.0	
0.07387	4.93861	0.0	
0.089344	5.03157	0.0	
0.106276	5.12429	0.0	
0.124663	5.21672	0.0	
0.144499	5.30886	0.0	
0.16578	5.40067	0.0	
0.188501	5.49214	0.0	
0.212655	5.58324	0.0	
0.238238	5.67395	0.0	
0.265242	5.76424	0.0	
0.293661	5.8541	0.0	
0.323488	5.9435	0.0	
0.354715	6.03243	0.0	
0.387336	6.12085	0.0	
0.421341	6.20875	0.0	
0.456723	6.2961	0.0	
0.493472	6.38289	0.0	
0.53158	6.46909	0.0	
0.571038	6.55468	0.0	
0.611835	6.63964	0.0	
0.653961	6.72394	0.0	
0.697406	6.80758	0.0	
0.74216	6.89052	0.0	
0.788211	6.97275	0.0	
0.835548	7.05425	0.0	
0.884159	7.13499	0.0	
0.934032	7.21496	0.0	
0.985156	7.29414	0.0	
1.03752	7.3725	0.0	
1.0911	7.45003	0.0	
1.1459	7.52671	0.0	
1.20189	7.60252	0.0	
1.25907	7.67744	0.0	
1.31742	7.75146	0.0	
1.37692	7.82454	0.0	
1.43756	7.89669	0.0	
1.49933	7.96787	0.0	
1.56221	8.03808	0.0	
1.62619	8.10728	0.0	
1.69124	8.17548	0.0	
1.75736	8.24264	0.0	
1.82452	8.30876	0.0	
1.89272	8.37381	0.0	
1.96192	8.43779	0.0	
2.03213	8.50067	0.0	
2.10331	8.56244	0.0	
2.17546	8.62308	0.0	
2.24854	8.68258	0.0	
2.32256	8.74093	0.0	
2.39748	8.79811	0.0	
2.47329	8.8541	0.0	
2.54997	8.9089	0.0	
2.6275	8.96248	0.0	
2.70586	9.01484	0.0	
2.78504	9.06597	0.0	
2.86501	9.11584	0.0	
2.94575	9.16445	0.0	
3.02725	9.21179	0.0	
3.10948	9.25784	0.0	
3.19242	9.30259	0.0	
3.27606	9.34604	0.0	
3.36036	9.38817	0.0	
3.44532	9.42896	0.0	
3.53091	9.46842	0.0	
3.61711	9.50653	0.0	
3.7039	9.54328	0.0	
3.79125	9.57866	0.0	
3.87915	9.61266	0.0	
3.96757	9.64528	0.0	
4.0565	9.67651	0.0	
4.1459	9.70634	0.0	
4.23576	9.73476	0.0	
4.32605	9.76176	0.0	
4.41676	9.78734	0.0	
4.50786	9.8115	0.0	
4.59933	9.83422	0.0	
4.69114	9.8555	0.0	
4.78328	9.87534	0.0	
4.87571	9.89372	0.0	
4.96843	9.91066	0.0	
5.06139	9.92613	0.0	
5.15459	9.94014	0.0	
5.248	9.95269	0.0	
5.34159	9.96377	0.0	
5.43535	9.97337	0.0	
5.52925	9.9815	0.0	
5.62326	9.98816	0.0	
5.71736	9.99334	0.0	
5.81154	9.99704	0.0	
5.90576	9.99926	0.0	
6	10	0.0	
6.08163	10	0.0	
6.16327	10	0.0	
6.2449	10	0.0	
6.32653	10	0.0	
6.40816	10	0.0	
6.4898	10	0.0	
6.57143	10	0.0	
6.65306	10	0.0	
6.73469	10	0.0	
6.81633	10	0.0	
6.89796	10	0.0	
6.97959	10	0.0	
7.06122	10	0.0	
7.14286	10	0.0	
7.22449	10	0.0	
7.30612	10	0.0	
7.38776	10	0.0	
7.46939	10	0.0	
7.55102	10	0.0	
7.63265	10	0.0	
7.71429	10	0.0	
7.79592	10	0.0	
7.87755	10	0.0	
7.95918	10	0.0	
8.04082	10	0.0	
8.12245	10	0.0	
8.20408	10	0.0	
8.28571	10	0.0	
8.36735	10	0.0	
8.44898	10	0.0	
8.53061	10	0.0	
8.61224	10	0.0	
8.69388	10	0.0	
8.77551	10	0.0	
8.85714	10	0.0	
8.93878	10	0.0	
9.02041	10	0.0	
9.10204	10	0.0	
9.18367	10	0.0	
9.26531	10	0.0	
9.34694	10	0.0	
9.42857	10	0.0	
9.5102	10	0.0	
9.59184	10	0.0	
9.67347	10	0.0	
9.7551	10	0.0	
9.83673	10	0.0	
9.91837	10	0.0	
10	10	0.0	
0.0816327	0	0.0	
0.0817269	0.0815353	0.0	
0.0818217	0.16307	0.0	
0.0819174	0.244604	0.0	
0.0820145	0.326137	0.0	
0.0821133	0.407668	0.0	
0.0822142	0.489198	0.0	
0.0823176	0.570725	0.0	
0.0824239	0.652251	0.0	
0.0825336	0.733773	0.0	
0.082647	0.815293	0.0	
0.0827647	0.896809	0.0	
0.0828872	0.978322	0.0	
0.0830148	1.05983	0.0	
0.0831482	1.14133	0.0	
0.0832878	1.22283	0.0	
0.0834343	1.30433	0.0	
0.0835883	1.38582	0.0	
0.0837504	1.4673	0.0	
0.0839212	1.54878	0.0	
0.0841015	1.63026	0.0	
0.084292	1.71172	0.0	
0.0844936	1.79318	0.0	
0.0847071	1.87464	0.0	
0.0849333	1.95609	0.0	
0.0851734	2.03753	0.0	
0.0854283	2.11896	0.0	
0.0856992	2.20039	0.0	
0.0859872	2.28182	0.0	
0.0862938	2.36323	0.0	
0.0866203	2.44464	0.0	
0.0869684	2.52605	0.0	
0.0873397	2.60745	0.0	
0.0877362	2.68885	0.0	
0.0881599	2.77025	0.0	
0.0886132	2.85165	0.0	
0.0890988	2.93305	0.0	
0.0896196	3.01446	0.0	
0.0901792	3.09588	0.0	
0.0907815	3.17732	0.0	
0.0914313	3.25878	0.0	
0.0921344	3.34027	0.0	
0.0928977	3.42181	0.0	
0.0937304	3.50341	0.0	
0.0946442	3.58512	0.0	
0.0956556	3.66697	0.0	
0.096789	3.74905	0.0	
0.0980835	3.83153	0.0	
0.0996105	3.91476	0.0	
0.101521	3.99958	0.0	
0.104199	4.08838	0.0	
0.107959	4.17889	0.0	
0.112942	4.27016	0.0	
0.119217	4.3618	0.0	
0.126823	4.4536	0.0	
0.135783	4.54544	0.0	
0.146111	4.63724	0.0	
0.157818	4.72895	0.0	
0.170909	4.82052	0.0	
0.185388	4.91192	0.0	
0.201257	5.00312	0.0	
0.218516	5.09408	0.0	
0.237165	5.18478	0.0	
0.257202	5.27519	0.0	
0.278625	5.36529	0.0	
0.301431	5.45505	0.0	
0.325615	5.54445	0.0	
0.351175	5.63346	0.0	
0.378104	5.72206	0.0	
0.406398	5.81023	0.0	
0.436051	5.89795	0.0	
0.467056	5.9852	0.0	
0.499407	6.07195	0.0	
0.533096	6.15818	0.0	
0.568117	6.24387	0.0	
0.604462	6.329	0.0	
0.642121	6.41355	0.0	
0.681087	6.49749	0.0	
0.72135	6.58082	0.0	
0.762902	6.6635	0.0	
0.805732	6.74552	0.0	
0.84983	6.82685	0.0	
0.895187	6.90749	0.0	
0.941791	6.9874	0.0	
0.989632	7.06658	0.0	
1.0387	7.14499	0.0	
1.08898	7.22262	0.0	
1.14046	7.29946	0.0	
1.19313	7.37548	0.0	
1.24698	7.45067	0.0	
1.30199	7.525	0.0	
1.35815	7.59846	0.0	
1.41545	7.67104	0.0	
1.47387	7.74271	0.0	
1.53341	7.81346	0.0	
1.59404	7.88327	0.0	
1.65575	7.95212	0.0	
1.71853	8.02	0.0	
1.78236	8.08689	0.0	
1.84722	8.15278	0.0	
1.91311	8.21764	0.0	
1.98	8.28147	0.0	
2.04788	8.34425	0.0	
2.11673	8.40596	0.0	
2.18654	8.46659	0.0	
2.25729	8.52612	0.0	
2.32896	8.58455	0.0	
2.40154	8.64185	0.0	
2.475	8.69801	0.0	
2.54933	8.75302	0.0	
2.62452	8.80687	0.0	
2.70054	8.85954	0.0	
2.77738	8.91102	0.0	
2.85501	8.9613	0.0	
2.93342	9.01037	0.0	
3.0126	9.05821	0.0	
3.09251	9.10481	0.0	
3.17314	9.15017	0.0	
3.25448	9.19427	0.0	
3.3365	9.2371	0.0	
3.41918	9.27865	0.0	
3.50251	9.31891	0.0	
3.58645	9.35788	0.0	
3.671	9.39554	0.0	
3.75613	9.43188	0.0	
3.84182	9.4669	0.0	
3.92805	9.50059	0.0	
4.0148	9.53294	0.0	
4.10204	9.56395	0.0	
4.18976	9.5936	0.0	
4.27794	9.6219	0.0	
4.36654	9.64882	0.0	
4.45555	9.67438	0.0	
4.54495	9.69857	0.0	
4.63471	9.72137	0.0	
4.72481	9.7428	0.0	
4.81522	9.76283	0.0	
4.90592	9.78148	0.0	
4.99688	9.79874	0.0	
5.08808	9.81461	0.0	
5.17948	9.82909	0.0	
5.27105	9.84218	0.0	
5.36276	9.85389	0.0	
5.45456	9.86422	0.0	
5.5464	9.87318	0.0	
5.6382	9.88078	0.0	
5.72984	9.88706	0.0	
5.82111	9.89204	0.0	
5.91162	9.8958	0.0	
6.00042	9.89848	0.0	
6.08524	9.90039	0.0	
6.16847	9.90192	0.0	
6.25095	9.90321	0.0	
6.33303	9.90434	0.0	
6.41488	9.90536	0.0	
6.49659	9.90627	0.0	
6.57819	9.9071	0.0	
6.65973	9.90787	0.0	
6.74122	9.90857	0.0	
6.82268	9.90922	0.0	
6.90412	9.90982	0.0	
6.98554	9.91038	0.0	
7.06695	9.9109	0.0	
7.14835	9.91139	0.0	
7.22975	9.91184	0.0	
7.31115	9.91226	0.0	
7.39255	9.91266	0.0	
7.47395	9.91303	0.0	
7.55536	9.91338	0.0	
7.63677	9.91371	0.0	
7.71818	9.91401	0.0	
7.79961	9.9143	0.0	
7.88104	9.91457	0.0	
7.96247	9.91483	0.0	
8.04391	9.91507	0.0	
8.12536	9.91529	0.0	
8.20681	9.91551	0.0	
8.28828	9.91571	0.0	
8.36974	9.9159	0.0	
8.45122	9.91608	0.0	
8.5327	9.91625	0.0	
8.61418	9.91641	0.0	
8.69567	9.91657	0.0	
8.77717	9.91671	0.0	
8.85867	9.91685	0.0	
8.94017	9.91699	0.0	
9.02168	9.91711	0.0	
9.10319	9.91724	0.0	
9.18471	9.91735	0.0	
9.26623	9.91747	0.0	
9.34775	9.91758	0.0	
9.42927	9.91768	0.0	
9.5108	9.91779	0.0	
9.59233	9.91789	0.0	
9.67386	9.91799	0.0	
9.7554	9.91808	0.0	
9.83693	9.91818	0.0	
9.91846	9.91827	0.0	
10	9.91837	0.0	
0.163265	0	0.0	
0.163453	0.0814384	0.0	
0.163642	0.162876	0.0	
0.163833	0.244312	0.0	
0.164027	0.325745	0.0	
0.164224	0.407176	0.0	
0.164425	0.488603	0.0	
0.164631	0.570026	0.0	
0.164843	0.651445	0.0	
0.165061	0.732858	0.0	
0.165287	0.814265	0.0	
0.165522	0.895665	0.0	
0.165765	0.977059	0.0	
0.16602	1.05844	0.0	
0.166285	1.13982	0.0	
0.166563	1.22119	0.0	
0.166855	1.30255	0.0	
0.167161	1.3839	0.0	
0.167484	1.46523	0.0	
0.167824	1.54656	0.0	
0.168182	1.62788	0.0	
0.168561	1.70918	0.0	
0.168962	1.79047	0.0	
0.169386	1.87175	0.0	
0.169836	1.95301	0.0	
0.170312	2.03426	0.0	
0.170818	2.1155	0.0	
0.171356	2.19673	0.0	
0.171928	2.27794	0.0	
0.172536	2.35914	0.0	
0.173184	2.44033	0.0	
0.173874	2.52151	0.0	
0.17461	2.60269	0.0	
0.175395	2.68386	0.0	
0.176234	2.76502	0.0	
0.177131	2.84618	0.0	
0.178092	2.92735	0.0	
0.179122	3.00853	0.0	
0.180228	3.08973	0.0	
0.181418	3.17096	0.0	
0.182701	3.25223	0.0	
0.184087	3.33355	0.0	
0.185592	3.41496	0.0	
0.18723	3.49649	0.0	
0.189026	3.57818	0.0	
0.191006	3.66011	0.0	
0.193214	3.7424	0.0	
0.195709	3.82521	0.0	
0.198583	3.90885	0.0	
0.201983	3.99377	0.0	
0.206125	4.08051	0.0	
0.2112	4.16859	0.0	
0.21734	4.25753	0.0	
0.224632	4.34698	0.0	
0.233131	4.43672	0.0	
0.242877	4.5266	0.0	
0.253895	4.61652	0.0	
0.266203	4.7064	0.0	
0.279816	4.7962	0.0	
0.294742	4.88585	0.0	
0.310989	4.97532	0.0	
0.328561	5.06457	0.0	
0.347459	5.15357	0.0	
0.367687	5.2423	0.0	
0.389242	5.33071	0.0	
0.412126	5.4188	0.0	
0.436334	5.50653	0.0	
0.461866	5.59388	0.0	
0.488717	5.68083	0.0	
0.516883	5.76735	0.0	
0.54636	5.85342	0.0	
0.577143	5.93902	0.0	
0.609225	6.02413	0.0	
0.642601	6.10873	0.0	
0.677264	6.19279	0.0	
0.713207	6.27629	0.0	
0.750423	6.35922	0.0	
0.788903	6.44156	0.0	
0.82864	6.52328	0.0	
0.869624	6.60437	0.0	
0.911847	6.68481	0.0	
0.9553	6.76457	0.0	
0.999973	6.84364	0.0	
1.04586	6.922	0.0	
1.09294	6.99963	0.0	
1.14121	7.07652	0.0	
1.19066	7.15264	0.0	
1.24128	7.22798	0.0	
1.29305	7.30252	0.0	
1.34596	7.37624	0.0	
1.40001	7.44913	0.0	
1.45517	7.52116	0.0	
[...]
POINT_DATA	9950
VECTORS u float
0	0	0.0
0.0119008	0.00280177	0.0
0.0151508	0.0041175	0.0
0.0175596	0.00497628	0.0
0.0192775	0.00582217	0.0
0.0206934	0.00665637	0.0
0.0219226	0.00748901	0.0
0.0230377	0.00831936	0.0
0.0240796	0.00914737	0.0
0.0250751	0.00997271	0.0
0.0260423	0.010795	0.0
0.0269941	0.0116141	0.0
0.0279399	0.0124294	0.0
0.0288869	0.0132408	0.0
0.0298407	0.0140481	0.0
0.0308052	0.0148506	0.0
0.0317841	0.0156484	0.0
0.03278	0.016441	0.0
0.033795	0.0172282	0.0
0.034831	0.0180096	0.0
0.0358893	0.0187849	0.0
0.0369713	0.0195541	0.0
0.0380776	0.0203167	0.0
0.0392092	0.0210724	0.0
0.0403666	0.021821	0.0
0.0415505	0.0225623	0.0
0.0427609	0.0232959	0.0
0.0439983	0.0240217	0.0
0.0452629	0.0247393	0.0
0.0465549	0.0254486	0.0
0.047874	0.0261493	0.0
0.0492204	0.026841	0.0
0.0505941	0.0275236	0.0
0.0519951	0.0281969	0.0
0.053423	0.0288604	0.0
0.0548776	0.0295141	0.0
0.0563591	0.0301576	0.0
0.0578667	0.0307906	0.0
0.0594005	0.0314129	0.0
0.0609599	0.0320241	0.0
0.062545	0.032624	0.0
0.064155	0.0332122	0.0
0.0657897	0.0337883	0.0
0.0674486	0.0343519	0.0
0.0691316	0.0349026	0.0
0.0708376	0.0354397	0.0
0.0725665	0.0359626	0.0
0.0743176	0.0364703	0.0
0.0760905	0.0369614	0.0
0.0778834	0.0374333	0.0
0.0799743	0.0379367	0.0
0.0820843	0.0383847	0.0
0.0842117	0.0387817	0.0
0.0863553	0.0391299	0.0
0.0885148	0.0394307	0.0
0.0906893	0.0396849	0.0
0.092878	0.0398932	0.0
0.0950798	0.0400559	0.0
0.0972944	0.0401733	0.0
0.0995207	0.0402457	0.0
0.101758	0.040273	0.0
0.104005	0.0402556	0.0
0.106262	0.0401933	0.0
0.108527	0.0400862	0.0
0.110799	0.0399343	0.0
0.113078	0.0397376	0.0
0.115362	0.0394961	0.0
0.117652	0.0392097	0.0
0.119945	0.0388786	0.0
0.122241	0.0385026	0.0
0.124539	0.0380818	0.0
0.126839	0.0376163	0.0
0.129138	0.0371059	0.0
0.131437	0.0365509	0.0
0.133733	0.0359511	0.0
0.136028	0.0353068	0.0
0.138318	0.0346179	0.0
0.140604	0.0338845	0.0
0.142884	0.0331069	0.0
0.145158	0.032285	0.0
0.147424	0.0314192	0.0
0.149682	0.0305095	0.0
0.151931	0.0295562	0.0
0.154169	0.0285595	0.0
0.156396	0.0275195	0.0
0.158611	0.0264366	0.0
0.160813	0.025311	0.0
0.163	0.024143	0.0
0.165173	0.0229331	0.0
0.16733	0.0216813	0.0
0.16947	0.0203882	0.0
0.171592	0.0190541	0.0
0.173696	0.0176793	0.0
0.175781	0.0162645	0.0
0.177845	0.0148099	0.0
0.179888	0.013316	0.0
0.181909	0.0117832	0.0
0.183908	0.0102119	0.0
0.185883	0.0086031	0.0
0.187833	0.00695677	0.0
0.189758	0.00527384	0.0
0.191658	0.00355445	0.0
0.19353	0.00179977	0.0
0.195376	9.68115e-06	0.0
0.197193	-0.00181462	0.0
0.198981	-0.00367297	0.0
0.20074	-0.00556416	0.0
0.202469	-0.00748829	0.0
0.204167	-0.00944412	0.0
0.205833	-0.0114312	0.0
0.207467	-0.0134488	0.0
0.209069	-0.0154963	0.0
0.210637	-0.0175729	0.0
0.212172	-0.0196781	0.0
0.213673	-0.0218109	0.0
0.215138	-0.0239706	0.0
0.216568	-0.0261568	0.0
0.217963	-0.0283684	0.0
0.219321	-0.0306047	0.0
0.220642	-0.0328652	0.0
0.221926	-0.0351487	0.0
0.223173	-0.0374548	0.0
0.224382	-0.0397827	0.0
0.225552	-0.0421315	0.0
0.226684	-0.0445006	0.0
0.227777	-0.0468889	0.0
0.22883	-0.0492959	0.0
0.229844	-0.0517206	0.0
0.230819	-0.0541626	0.0
0.231753	-0.0566206	0.0
0.232647	-0.0590942	0.0
0.2335	-0.0615823	0.0
0.234312	-0.0640844	0.0
0.235084	-0.0665997	0.0
0.235815	-0.0691273	0.0
0.236504	-0.0716664	0.0
0.237153	-0.0742164	0.0
0.23776	-0.0767761	0.0
0.238325	-0.0793454	0.0
0.238849	-0.0819227	0.0
0.239331	-0.084508	0.0
0.239772	-0.0871002	0.0
0.240171	-0.0896984	0.0
0.240529	-0.0923023	0.0
0.240845	-0.0949109	0.0
0.24112	-0.0975232	0.0
0.241354	-0.100139	0.0
0.241547	-0.102757	0.0
0.241699	-0.105377	0.0
0.241811	-0.107997	0.0
0.241892	-0.110268	0.0
0.241974	-0.112541	0.0
0.242056	-0.114814	0.0
0.242138	-0.117089	0.0
0.24222	-0.119365	0.0
0.242302	-0.121642	0.0
0.242383	-0.12392	0.0
0.242463	-0.126199	0.0
0.242542	-0.128479	0.0
0.24262	-0.130761	0.0
0.242696	-0.133042	0.0
0.242771	-0.135324	0.0
0.242844	-0.137607	0.0
0.242915	-0.13989	0.0
0.242984	-0.142174	0.0
0.24305	-0.144457	0.0
0.243115	-0.14674	0.0
0.243176	-0.149023	0.0
0.243234	-0.151306	0.0
0.243289	-0.153587	0.0
0.243341	-0.155868	0.0
0.243389	-0.158147	0.0
0.243434	-0.160425	0.0
0.243474	-0.1627	0.0
0.24351	-0.164973	0.0
0.243542	-0.167243	0.0
0.243569	-0.169509	0.0
0.243591	-0.171772	0.0
0.243609	-0.17403	0.0
0.243622	-0.176283	0.0
0.24363	-0.178531	0.0
0.243634	-0.180772	0.0
0.243633	-0.183006	0.0
0.243628	-0.185234	0.0
0.24362	-0.187453	0.0
0.243608	-0.189665	0.0
0.243593	-0.191868	0.0
0.243577	-0.194062	0.0
0.243559	-0.196248	0.0
0.243541	-0.198426	0.0
0.243523	-0.200596	0.0
0.243507	-0.20276	0.0
0.243492	-0.204917	0.0
0.243481	-0.207069	0.0
0.243472	-0.209218	0.0
0.243466	-0.211366	0.0
0.243464	-0.213513	0.0
0.243463	-0.215663	0.0
0.243463	-0.217813	0.0
0.00708582	0	0.0
0.0107635	-0.00025109	0.0
0.0147568	0.00167391	0.0
0.017087	0.00312873	0.0
0.0188593	0.00431883	0.0
0.0202915	0.00536394	0.0
0.0215331	0.00632787	0.0
0.0226555	0.00724221	0.0
0.0237024	0.00812371	0.0
0.0247012	0.00898188	0.0
0.0256708	0.00982243	0.0
0.0266244	0.010649	0.0
0.0275715	0.0114638	0.0
0.0285194	0.0122684	0.0
0.0294737	0.0130639	0.0
0.0304386	0.0138509	0.0
0.0314177	0.0146299	0.0
0.0324136	0.0154011	0.0
0.0334284	0.0161646	0.0
0.0344641	0.0169207	0.0
0.0355221	0.0176692	0.0
0.0366033	0.0184099	0.0
0.0377088	0.0191431	0.0
0.0388396	0.0198684	0.0
0.0399959	0.0205857	0.0
0.0411784	0.0212948	0.0
0.0423874	0.0219956	0.0
0.0436232	0.0226879	0.0
0.0448861	0.0233715	0.0
0.0461758	0.0240461	0.0
0.0474928	0.0247116	0.0
0.0488369	0.0253677	0.0
0.0502081	0.0260141	0.0
0.0516064	0.0266507	0.0
0.0530315	0.0272771	0.0
0.0544834	0.0278932	0.0
0.0559619	0.0284985	0.0
0.0574668	0.0290929	0.0
0.0589979	0.0296759	0.0
0.0605551	0.0302474	0.0
0.0621382	0.0308069	0.0
0.0637469	0.031354	0.0
0.0653813	0.0318884	0.0
0.0670413	0.0324095	0.0
0.0687275	0.0329169	0.0
0.0704402	0.03341	0.0
0.0721809	0.0338882	0.0
0.0739529	0.0343509	0.0
0.0757634	0.0347979	0.0
0.0776302	0.0352299	0.0
0.0796042	0.0356511	0.0
0.0816343	0.0360413	0.0
0.0836988	0.0363925	0.0
0.0857888	0.036702	0.0
0.0878995	0.036969	0.0
0.090028	0.0371929	0.0
0.0921724	0.0373737	0.0
0.0943313	0.0375114	0.0
0.0965034	0.0376058	0.0
0.0986877	0.0376571	0.0
0.100883	0.0376652	0.0
0.103089	0.0376299	0.0
0.105304	0.0375515	0.0
0.107527	0.0374297	0.0
0.109757	0.0372645	0.0
0.111994	0.0370559	0.0
0.114237	0.036804	0.0
0.116484	0.0365085	0.0
0.118734	0.0361695	0.0
0.120988	0.035787	0.0
0.123243	0.035361	0.0
0.125499	0.0348915	0.0
0.127756	0.0343785	0.0
0.130011	0.0338221	0.0
0.132264	0.0332222	0.0
0.134515	0.032579	0.0
0.136762	0.0318925	0.0
0.139004	0.0311628	0.0
0.141241	0.0303901	0.0
0.143471	0.0295744	0.0
0.145694	0.0287159	0.0
0.147908	0.0278148	0.0
0.150114	0.0268713	0.0
0.152309	0.0258855	0.0
0.154493	0.0248578	0.0
0.156665	0.0237882	0.0
0.158824	0.0226772	0.0
0.16097	0.0215251	0.0
0.163101	0.020332	0.0
0.165216	0.0190982	0.0
0.167315	0.0178243	0.0
0.169396	0.0165106	0.0
0.17146	0.0151573	0.0
0.173505	0.013765	0.0
0.17553	0.0123338	0.0
0.177534	0.0108644	0.0
0.179517	0.00935731	0.0
0.181478	0.00781279	0.0
0.183415	0.00623147	0.0
0.18533	0.00461396	0.0
0.187219	0.0029604	0.0
0.189083	0.00127167	0.0
0.190922	-0.000451824	0.0
0.192734	-0.00220942	0.0
0.194519	-0.00400071	0.0
0.196275	-0.00582502	0.0
0.198003	-0.00768167	0.0
0.199702	-0.00957023	0.0
0.201371	-0.0114897	0.0
0.203009	-0.0134397	0.0
0.204616	-0.0154198	0.0
0.206192	-0.017429	0.0
0.207735	-0.0194668	0.0
0.209246	-0.0215322	0.0
0.210723	-0.0236248	0.0
0.212167	-0.0257441	0.0
0.213576	-0.0278889	0.0
0.214951	-0.0300587	0.0
0.216291	-0.032253	0.0
0.217595	-0.0344709	0.0
0.218863	-0.0367115	0.0
0.220094	-0.0389744	0.0
0.22129	-0.0412584	0.0
0.222448	-0.0435632	0.0
0.223568	-0.0458878	0.0
0.224651	-0.0482316	0.0
0.225696	-0.0505937	0.0
0.226703	-0.0529734	0.0
0.227672	-0.0553698	0.0
0.228602	-0.0577823	0.0
0.229493	-0.0602103	0.0
0.230345	-0.0626525	0.0
0.231158	-0.0651085	0.0
0.231931	-0.0675774	0.0
0.232665	-0.0700584	0.0
0.23336	-0.0725508	0.0
0.234014	-0.0750535	0.0
0.23463	-0.0775659	0.0
0.235205	-0.080087	0.0
0.235742	-0.0826161	0.0
0.236238	-0.0851519	0.0
0.236695	-0.0876936	0.0
0.237113	-0.0902402	0.0
0.237492	-0.0927902	0.0
0.237833	-0.095342	0.0
0.238135	-0.0978934	0.0
0.2384	-0.100441	0.0
0.238628	-0.102979	0.0
0.238822	-0.105496	0.0
0.238984	-0.107966	0.0
0.239122	-0.110326	0.0
0.239247	-0.112643	0.0
0.239365	-0.114941	0.0
0.239479	-0.117229	0.0
0.239588	-0.119512	0.0
0.239695	-0.121792	0.0
0.239798	-0.12407	0.0
0.239898	-0.126347	0.0
0.239996	-0.128624	0.0
0.240091	-0.130901	0.0
0.240183	-0.133179	0.0
0.240273	-0.135456	0.0
0.24036	-0.137733	0.0
0.240444	-0.140011	0.0
0.240526	-0.142289	0.0
0.240604	-0.144567	0.0
0.240679	-0.146845	0.0
0.240751	-0.149123	0.0
0.24082	-0.151401	0.0
0.240885	-0.153678	0.0
0.240947	-0.155954	0.0
0.241004	-0.158229	0.0
0.241058	-0.160502	0.0
0.241108	-0.162774	0.0
0.241154	-0.165043	0.0
0.241195	-0.16731	0.0
0.241232	-0.169573	0.0
0.241264	-0.171833	0.0
0.241292	-0.174088	0.0
0.241315	-0.176339	0.0
0.241334	-0.178584	0.0
0.241348	-0.180823	0.0
0.241358	-0.183055	0.0
0.241364	-0.18528	0.0
0.241367	-0.187498	0.0
0.241367	-0.189707	0.0
0.241363	-0.191907	0.0
0.241358	-0.194099	0.0
0.241351	-0.196283	0.0
0.241343	-0.198457	0.0
0.241335	-0.200624	0.0
0.241327	-0.202784	0.0
0.24132	-0.204937	0.0
0.241314	-0.207086	0.0
0.24131	-0.209231	0.0
0.241308	-0.211375	0.0
0.241308	-0.213519	0.0
0.24131	-0.215665	0.0
0.241312	-0.217813	0.0
0.0105787	0	0.0
0.0118902	-5.09343e-05	0.0
0.0143931	0.000671416	0.0
0.0166545	0.00193586	0.0
0.0184053	0.00314632	0.0
0.0198588	0.00425732	0.0
0.0211183	0.00528193	0.0
0.0222552	0.00624239	0.0
0.0233129	0.00715562	0.0
0.02432	0.00803345	0.0
0.0252958	0.00888393	0.0
0.0262541	0.00971261	0.0
0.0272049	0.0105234	0.0
0.0281556	0.0113189	0.0
0.0291121	0.0121013	0.0
0.0300788	0.0128719	0.0
0.0310591	0.0136316	0.0
0.0320559	0.0143813	0.0
0.0330713	0.0151213	0.0
0.0341074	0.0158522	0.0
0.0351654	0.0165741	0.0
0.0362465	0.0172871	0.0
0.0373516	0.0179913	0.0
0.0384817	0.0186868	0.0
0.0396372	0.0193734	0.0
0.0408186	0.0200512	0.0
0.0420264	0.02072	0.0
0.0432607	0.0213797	0.0
0.0445218	0.02203	0.0
0.0458097	0.0226709	0.0
0.0471246	0.0233022	0.0
0.0484664	0.0239236	0.0
0.0498353	0.024535	0.0
0.051231	0.0251361	0.0
0.0526533	0.0257265	0.0
0.0541023	0.0263061	0.0
0.0555778	0.0268746	0.0
0.0570798	0.0274317	0.0
0.0586081	0.0279771	0.0
0.0601627	0.0285104	0.0
0.0617434	0.0290311	0.0
0.0633501	0.029539	0.0
0.0649833	0.0300336	0.0
0.0666434	0.0305144	0.0
0.0683307	0.0309808	0.0
0.0700466	0.0314324	0.0
0.0717935	0.0318685	0.0
0.0735741	0.0322885	0.0
0.0753949	0.0326918	0.0
0.0772646	0.0330777	0.0
0.0791939	0.0334438	0.0
0.0811713	0.033783	0.0
0.0831853	0.0340897	0.0
0.0852275	0.0343601	0.0
0.0872928	0.0345924	0.0
0.0893779	0.0347851	0.0
0.0914801	0.0349376	0.0
0.0935976	0.0350494	0.0
0.0957292	0.0351203	0.0
0.097873	0.03515	0.0
0.100028	0.0351382	0.0
0.102193	0.0350848	0.0
0.104368	0.0349898	0.0
0.106551	0.034853	0.0
0.10874	0.0346743	0.0
0.110936	0.0344535	0.0
0.113138	0.0341908	0.0
0.115344	0.0338859	0.0
0.117553	0.0335389	0.0
0.119765	0.0331497	0.0
0.121979	0.0327182	0.0
0.124193	0.0322445	0.0
0.126407	0.0317286	0.0
0.128621	0.0311705	0.0
0.130832	0.0305703	0.0
0.13304	0.0299279	0.0
0.135245	0.0292435	0.0
0.137445	0.0285171	0.0
0.139639	0.0277489	0.0
0.141827	0.026939	0.0
0.144007	0.0260876	0.0
0.14618	0.0251947	0.0
0.148343	0.0242605	0.0
0.150496	0.0232852	0.0
0.152638	0.0222693	0.0
0.154768	0.0212127	0.0
0.156886	0.0201158	0.0
0.15899	0.0189787	0.0
0.16108	0.0178019	0.0
0.163155	0.0165858	0.0
0.165213	0.0153304	0.0
0.167255	0.0140364	0.0
0.169279	0.0127038	0.0
0.171285	0.0113331	0.0
0.173271	0.00992494	0.0
0.175238	0.00847924	0.0
0.177183	0.00699708	0.0
0.179107	0.00547854	0.0
0.181009	0.00392398	0.0
0.182887	0.00233403	0.0
0.184742	0.000709321	0.0
0.186572	-0.000949768	0.0
0.188377	-0.00264284	0.0
0.190156	-0.00436925	0.0
0.191909	-0.00612832	0.0
0.193635	-0.00791964	0.0
0.195332	-0.00974253	0.0
0.197002	-0.0115963	0.0
0.198642	-0.0134808	0.0
0.200252	-0.0153951	0.0
0.201833	-0.0173384	0.0
0.203383	-0.0193103	0.0
0.204901	-0.0213101	0.0
0.206388	-0.0233371	0.0
0.207843	-0.0253906	0.0
0.209265	-0.0274703	0.0
0.210654	-0.0295751	0.0
0.212009	-0.0317044	0.0
0.21333	-0.0338575	0.0
0.214617	-0.036034	0.0
0.215869	-0.0382328	0.0
0.217086	-0.0404533	0.0
0.218267	-0.0426947	0.0
0.219413	-0.0449568	0.0
0.220522	-0.0472381	0.0
0.221596	-0.0495383	0.0
0.222632	-0.0518568	0.0
0.223632	-0.0541926	0.0
0.224594	-0.0565449	0.0
0.22552	-0.058913	0.0
0.226408	-0.0612962	0.0
0.227258	-0.0636935	0.0
0.228071	-0.0661045	0.0
0.228845	-0.0685285	0.0
0.229582	-0.0709638	0.0
0.230281	-0.0734105	0.0
0.230942	-0.0758674	0.0
0.231565	-0.0783335	0.0
0.23215	-0.0808079	0.0
0.232698	-0.0832897	0.0
0.233207	-0.0857777	0.0
0.23368	-0.0882706	0.0
0.234116	-0.0907673	0.0
0.234514	-0.0932657	0.0
0.234877	-0.0957637	0.0
0.235205	-0.0982585	0.0
0.235498	-0.100746	0.0
0.235759	-0.103219	0.0
0.235989	-0.10567	0.0
0.236191	-0.108084	0.0
0.23637	-0.110448	0.0
0.236534	-0.112777	0.0
0.236686	-0.115085	0.0
0.236829	-0.117379	0.0
0.236965	-0.119665	0.0
0.237096	-0.121945	0.0
0.237221	-0.124222	0.0
0.237341	-0.126497	0.0
0.237458	-0.12877	0.0
0.23757	-0.131043	0.0
0.237678	-0.133315	0.0
0.237783	-0.135587	0.0
0.237884	-0.137859	0.0
0.237982	-0.140132	0.0
0.238076	-0.142404	0.0
0.238166	-0.144676	0.0
0.238253	-0.146949	0.0
0.238336	-0.149222	0.0
0.238415	-0.151495	0.0
0.238491	-0.153767	0.0
0.238563	-0.156038	0.0
0.23863	-0.158309	0.0
0.238694	-0.160578	0.0
0.238754	-0.162846	0.0
0.238809	-0.165112	0.0
0.23886	-0.167375	0.0
0.238906	-0.169635	0.0
0.238948	-0.171892	0.0
0.238986	-0.174144	0.0
0.239019	-0.176392	0.0
0.239048	-0.178635	0.0
0.239073	-0.180871	0.0
0.239093	-0.183101	0.0
0.23911	-0.185324	0.0
0.239122	-0.187539	0.0
0.239132	-0.189746	0.0
0.239138	-0.191944	0.0
0.239143	-0.194133	0.0
0.239145	-0.196314	0.0
0.239145	-0.198486	0.0
0.239145	-0.20065	0.0
0.239144	-0.202807	0.0
0.239143	-0.204957	0.0
0.239143	-0.207102	0.0
0.239144	-0.209244	0.0
0.239146	-0.211384	0.0
0.23915	-0.213524	0.0
0.239154	-0.215666	0.0
0.23916	-0.217812	0.0
0.0124683	0	0.0
0.0131345	6.94426e-05	0.0
0.0146819	0.000528452	0.0
0.0164427	0.00136527	0.0
0.0180592	0.00238676	0.0
0.019469	0.00341976	0.0
0.020722	0.00441727	0.0
0.0218631	0.00536973	0.0
0.0229279	0.00628055	0.0
0.0239421	0.00715581	0.0
0.0249244	0.00800138	0.0
0.0258882	0.0088221	0.0
0.0268435	0.00962177	0.0
0.0277981	0.0104033	0.0
0.0287576	0.0111691	0.0
0.0297268	0.0119207	0.0
0.0307091	0.0126594	0.0
0.0317074	0.0133863	0.0
0.032724	0.0141021	0.0
0.0337609	0.0148074	0.0
0.0348194	0.0155025	0.0
0.0359007	0.0161877	0.0
0.0370058	0.0168632	0.0
0.0381355	0.0175291	0.0
0.0392903	0.0181855	0.0
0.0404709	0.0188324	0.0
0.0416777	0.0194697	0.0
0.0429106	0.0200973	0.0
0.0441702	0.0207153	0.0
0.0454562	0.0213232	0.0
0.0467693	0.0219212	0.0
0.0481088	0.0225088	0.0
0.0494751	0.023086	0.0
0.0508682	0.0236526	0.0
0.0522877	0.0242081	0.0
0.0537339	0.0247525	0.0
0.0552064	0.0252854	0.0
0.0567052	0.0258065	0.0
0.0582302	0.0263154	0.0
0.0597816	0.0268119	0.0
0.0613594	0.0272956	0.0
0.0629636	0.0277659	0.0
0.0645944	0.0282224	0.0
0.0662525	0.0286648	0.0
0.0679385	0.0290923	0.0
0.0696536	0.0295044	0.0
0.0713998	0.0299005	0.0
0.0731796	0.0302798	0.0
0.0749964	0.0306414	0.0
0.0768538	0.0309836	0.0
0.0787543	0.031304	0.0
0.0806939	0.0315988	0.0
0.0826669	0.031864	0.0
0.084668	0.0320967	0.0
0.0866925	0.0322945	0.0
0.0887373	0.032456	0.0
0.0907999	0.0325799	0.0
0.0928781	0.0326657	0.0
0.0949705	0.0327126	0.0
0.0970754	0.0327203	0.0
0.0991918	0.0326884	0.0
0.101318	0.0326166	0.0
0.103454	0.0325048	0.0
0.105597	0.0323527	0.0
0.107748	0.0321601	0.0
0.109904	0.0319271	0.0
0.112066	0.0316533	0.0
0.114232	0.0313388	0.0
0.116401	0.0309835	0.0
0.118573	0.0305873	0.0
0.120746	0.0301502	0.0
0.122919	0.0296721	0.0
0.125093	0.029153	0.0
0.127265	0.0285931	0.0
0.129435	0.0279921	0.0
0.131602	0.0273504	0.0
0.133765	0.0266678	0.0
0.135924	0.0259445	0.0
0.138077	0.0251805	0.0
0.140223	0.024376	0.0
0.142362	0.0235311	0.0
0.144493	0.0226461	0.0
0.146615	0.0217209	0.0
0.148727	0.0207559	0.0
0.150829	0.0197511	0.0
0.152919	0.0187069	0.0
0.154996	0.0176236	0.0
0.15706	0.0165014	0.0
0.15911	0.0153403	0.0
0.161145	0.0141409	0.0
0.163164	0.0129035	0.0
0.165167	0.0116285	0.0
0.167153	0.010316	0.0
0.16912	0.00896632	0.0
0.171069	0.00758031	0.0
0.172998	0.00615803	0.0
0.174907	0.00469982	0.0
0.176795	0.00320627	0.0
0.178661	0.00167775	0.0
0.180505	0.000114867	0.0
0.182325	-0.001482	0.0
0.184122	-0.00311246	0.0
0.185894	-0.00477588	0.0
0.187641	-0.0064716	0.0
0.189362	-0.00819947	0.0
0.191057	-0.00995883	0.0
0.192725	-0.011749	0.0
0.194365	-0.0135693	0.0
0.195977	-0.0154193	0.0
0.197561	-0.0172986	0.0
0.199115	-0.0192062	0.0
0.200639	-0.0211419	0.0
0.202133	-0.0231048	0.0
0.203596	-0.0250944	0.0
0.205029	-0.0271101	0.0
0.206429	-0.0291512	0.0
0.207798	-0.031217	0.0
0.209133	-0.0333066	0.0
0.210436	-0.0354198	0.0
0.211706	-0.037556	0.0
0.212942	-0.0397139	0.0
0.214144	-0.0418933	0.0
0.215312	-0.0440934	0.0
0.216445	-0.0463135	0.0
0.217543	-0.048553	0.0
0.218606	-0.0508108	0.0
0.219634	-0.0530864	0.0
0.220626	-0.0553795	0.0
0.221583	-0.0576888	0.0
0.222503	-0.0600135	0.0
0.223388	-0.0623534	0.0
0.224236	-0.0647071	0.0
0.225048	-0.0670744	0.0
0.225823	-0.069454	0.0
0.226562	-0.0718456	0.0
0.227265	-0.0742478	0.0
0.227931	-0.0766599	0.0
0.228562	-0.0790811	0.0
0.229155	-0.0815103	0.0
0.229713	-0.0839466	0.0
0.230236	-0.0863886	0.0
0.230722	-0.0888345	0.0
0.231174	-0.0912837	0.0
0.231591	-0.0937337	0.0
0.231975	-0.0961822	0.0
0.232325	-0.0986263	0.0
0.232644	-0.101063	0.0
0.232933	-0.103485	0.0
0.233194	-0.105889	0.0
0.233429	-0.108268	0.0
0.233643	-0.110617	0.0
0.233839	-0.112942	0.0
0.234021	-0.115249	0.0
0.234192	-0.117542	0.0
0.234354	-0.119827	0.0
0.234507	-0.122104	0.0
0.234654	-0.124378	0.0
0.234794	-0.126648	0.0
0.234928	-0.128917	0.0
0.235058	-0.131184	0.0
0.235182	-0.133451	0.0
0.235302	-0.135717	0.0
0.235417	-0.137984	0.0
0.235528	-0.14025	0.0
0.235635	-0.142517	0.0
0.235737	-0.144784	0.0
0.235836	-0.147052	0.0
0.23593	-0.149319	0.0
0.23602	-0.151586	0.0
0.236106	-0.153853	0.0
0.236189	-0.15612	0.0
0.236267	-0.158387	0.0
0.23634	-0.160651	0.0
0.23641	-0.162915	0.0
0.236475	-0.165177	0.0
0.236536	-0.167437	0.0
0.236592	-0.169694	0.0
0.236644	-0.171947	0.0
0.236691	-0.174197	0.0
0.236734	-0.176442	0.0
0.236773	-0.178683	0.0
0.236807	-0.180917	0.0
0.236838	-0.183144	0.0
0.236864	-0.185365	0.0
0.236886	-0.187578	0.0
0.236904	-0.189783	0.0
0.23692	-0.191979	0.0
0.236932	-0.194166	0.0
0.236942	-0.196344	0.0
0.23695	-0.198514	0.0
0.236956	-0.200675	0.0
0.236961	-0.202829	0.0
0.236966	-0.204976	0.0
0.236971	-0.207117	0.0
0.236976	-0.209255	0.0
0.236982	-0.211391	0.0
0.236989	-0.213528	0.0
0.236997	-0.215666	0.0
0.237006	-0.217809	0.0
0.0137394	0	0.0
0.0141404	0.000156444	0.0
0.0151695	0.000515506	0.0
0.0165007	0.00113475	0.0
0.0178767	0.00193932	0.0
0.0191798	0.00283176	0.0
0.0203857	0.00374266	0.0
0.0215084	0.00464146	0.0
0.0225676	0.00551665	0.0
0.023582	0.00636556	0.0
0.0245669	0.00718913	0.0
0.0255341	0.00798952	0.0
0.0264929	0.00876908	0.0
0.0274507	0.00952998	0.0
0.0284133	0.0102742	0.0
0.029385	0.0110032	0.0
0.0303695	0.0117183	0.0
0.0313696	0.0124205	0.0
0.0323875	0.0131105	0.0
0.0334254	0.0137892	0.0
0.0344846	0.0144568	0.0
0.0355663	0.0151138	0.0
0.0366715	0.0157603	0.0
0.0378011	0.0163967	0.0
0.0389555	0.017023	0.0
0.0401355	0.0176393	0.0
0.0413412	0.0182455	0.0
0.0425729	0.0188416	0.0
0.043831	0.0194275	0.0
0.0451154	0.0200032	0.0
0.0464263	0.0205684	0.0
0.0477637	0.0211231	0.0
0.0491276	0.0216669	0.0
0.0505178	0.0221998	0.0
0.0519346	0.0227214	0.0
0.0533776	0.0232316	0.0
0.0548468	0.0237299	0.0
0.0563421	0.0242162	0.0
0.0578638	0.0246901	0.0
0.0594114	0.0251511	0.0
0.0609854	0.0255989	0.0
0.0625858	0.0260332	0.0
0.0642129	0.0264533	0.0
0.0658672	0.0268589	0.0
0.0675493	0.0272492	0.0
0.0692604	0.0276239	0.0
0.0710013	0.0279819	0.0
0.0727741	0.0283225	0.0
0.0745802	0.0286446	0.0
0.0764212	0.0289465	0.0
0.0782971	0.0292262	0.0
0.0802062	0.0294809	0.0
0.0821451	0.0297079	0.0
0.0841099	0.0299047	0.0
0.0860977	0.0300693	0.0