# vtk DataFile Version 4.1
vtk output
ASCII
DATASET UNSTRUCTURED_GRID

POINTS	6	float
0	0	0.0	
1	0	0.0	
2	0	0.0	
2	1	0.0	
1	1	0.0	
0	1	0.0	

CELLS 4	16
3	0	1	4	
3	1	2	3	
3	1	3	4	
3	4	5	0	

CELL_TYPES	4
5
5
5
5

POINT_DATA	6
VECTORS u0 float
0	0	0
-0.000995167	-0.00307546	0
-0.0011709	-0.00666741	0
0.00154235	-0.00684315	0
0.00137846	-0.00287206	0
0	-0.00109772	0
