# vtk DataFile Version 4.1
vtk output
ASCII
DATASET UNSTRUCTURED_GRID

POINTS	14586	float
0	0	0	
0.04	0	0	
0.08	0	0	
0.12	0	0	
0.16	0	0	
0.2	0	0	
0.24	0	0	
0.28	0	0	
0.32	0	0	
0.36	0	0	
0.4	0	0	
0	0.04	0	
0.04	0.04	0	
0.08	0.04	0	
0.12	0.04	0	
0.16	0.04	0	
0.2	0.04	0	
0.24	0.04	0	
0.28	0.04	0	
0.32	0.04	0	
0.36	0.04	0	
0.4	0.04	0	
0	0.08	0	
0.04	0.08	0	
0.08	0.08	0	
0.12	0.08	0	
0.16	0.08	0	
0.2	0.08	0	
0.24	0.08	0	
0.28	0.08	0	
0.32	0.08	0	
0.36	0.08	0	
0.4	0.08	0	
0	0.12	0	
0.04	0.12	0	
0.08	0.12	0	
0.12	0.12	0	
0.16	0.12	0	
0.2	0.12	0	
0.24	0.12	0	
0.28	0.12	0	
0.32	0.12	0	
0.36	0.12	0	
0.4	0.12	0	
0	0.16	0	
0.04	0.16	0	
0.08	0.16	0	
0.12	0.16	0	
0.16	0.16	0	
0.2	0.16	0	
0.24	0.16	0	
0.28	0.16	0	
0.32	0.16	0	
0.36	0.16	0	
0.4	0.16	0	
0	0.2	0	
0.04	0.2	0	
0.08	0.2	0	
0.12	0.2	0	
0.16	0.2	0	
0.2	0.2	0	
0.24	0.2	0	
0.28	0.2	0	
0.32	0.2	0	
0.36	0.2	0	
0.4	0.2	0	
0	0.24	0	
0.04	0.24	0	
0.08	0.24	0	
0.12	0.24	0	
0.16	0.24	0	
0.2	0.24	0	
0.24	0.24	0	
0.28	0.24	0	
0.32	0.24	0	
0.36	0.24	0	
0.4	0.24	0	
0	0.28	0	
0.04	0.28	0	
0.08	0.28	0	
0.12	0.28	0	
0.16	0.28	0	
0.2	0.28	0	
0.24	0.28	0	
0.28	0.28	0	
0.32	0.28	0	
0.36	0.28	0	
0.4	0.28	0	
0	0.32	0	
0.04	0.32	0	
0.08	0.32	0	
0.12	0.32	0	
0.16	0.32	0	
0.2	0.32	0	
0.24	0.32	0	
0.28	0.32	0	
0.32	0.32	0	
0.36	0.32	0	
0.4	0.32	0	
0	0.36	0	
0.04	0.36	0	
0.08	0.36	0	
0.12	0.36	0	
0.16	0.36	0	
0.2	0.36	0	
0.24	0.36	0	
0.28	0.36	0	
0.32	0.36	0	
0.36	0.36	0	
0.4	0.36	0	
0	0.4	0	
0.04	0.4	0	
0.08	0.4	0	
0.12	0.4	0	
0.16	0.4	0	
0.2	0.4	0	
0.24	0.4	0	
0.28	0.4	0	
0.32	0.4	0	
0.36	0.4	0	
0.4	0.4	0	
0	0.44	0	
0.04	0.44	0	
0.08	0.44	0	
0.12	0.44	0	
0.16	0.44	0	
0.2	0.44	0	
0.24	0.44	0	
0.28	0.44	0	
0.32	0.44	0	
0.36	0.44	0	
0.4	0.44	0	
0	0.48	0	
0.04	0.48	0	
0.08	0.48	0	
0.12	0.48	0	
0.16	0.48	0	
0.2	0.48	0	
0.24	0.48	0	
0.28	0.48	0	
0.32	0.48	0	
0.36	0.48	0	
0.4	0.48	0	
0	0.52	0	
0.04	0.52	0	
0.08	0.52	0	
0.12	0.52	0	
0.16	0.52	0	
0.2	0.52	0	
0.24	0.52	0	
0.28	0.52	0	
0.32	0.52	0	
0.36	0.52	0	
0.4	0.52	0	
0	0.56	0	
0.04	0.56	0	
0.08	0.56	0	
0.12	0.56	0	
0.16	0.56	0	
0.2	0.56	0	
0.24	0.56	0	
0.28	0.56	0	
0.32	0.56	0	
0.36	0.56	0	
0.4	0.56	0	
0	0.6	0	
0.04	0.6	0	
0.08	0.6	0	
0.12	0.6	0	
0.16	0.6	0	
0.2	0.6	0	
0.24	0.6	0	
0.28	0.6	0	
0.32	0.6	0	
0.36	0.6	0	
0.4	0.6	0	
0	0.64	0	
0.04	0.64	0	
0.08	0.64	0	
0.12	0.64	0	
0.16	0.64	0	
0.2	0.64	0	
0.24	0.64	0	
0.28	0.64	0	
0.32	0.64	0	
0.36	0.64	0	
0.4	0.64	0	
0	0.68	0	
0.04	0.68	0	
0.08	0.68	0	
0.12	0.68	0	
0.16	0.68	0	
0.2	0.68	0	
0.24	0.68	0	
0.28	0.68	0	
0.32	0.68	0	
0.36	0.68	0	
0.4	0.68	0	
0	0.72	0	
0.04	0.72	0	
0.08	0.72	0	
0.12	0.72	0	
0.16	0.72	0	
0.2	0.72	0	
0.24	0.72	0	
0.28	0.72	0	
0.32	0.72	0	
0.36	0.72	0	
0.4	0.72	0	
0	0.76	0	
0.04	0.76	0	
0.08	0.76	0	
0.12	0.76	0	
0.16	0.76	0	
0.2	0.76	0	
0.24	0.76	0	
0.28	0.76	0	
0.32	0.76	0	
0.36	0.76	0	
0.4	0.76	0	
0	0.8	0	
0.04	0.8	0	
0.08	0.8	0	
0.12	0.8	0	
0.16	0.8	0	
0.2	0.8	0	
0.24	0.8	0	
0.28	0.8	0	
0.32	0.8	0	
0.36	0.8	0	
0.4	0.8	0	
0	0.84	0	
0.04	0.84	0	
0.08	0.84	0	
0.12	0.84	0	
0.16	0.84	0	
0.2	0.84	0	
0.24	0.84	0	
0.28	0.84	0	
0.32	0.84	0	
0.36	0.84	0	
0.4	0.84	0	
0	0.88	0	
0.04	0.88	0	
0.08	0.88	0	
0.12	0.88	0	
0.16	0.88	0	
0.2	0.88	0	
0.24	0.88	0	
0.28	0.88	0	
0.32	0.88	0	
0.36	0.88	0	
0.4	0.88	0	
0	0.92	0	
0.04	0.92	0	
0.08	0.92	0	
0.12	0.92	0	
0.16	0.92	0	
0.2	0.92	0	
0.24	0.92	0	
0.28	0.92	0	
0.32	0.92	0	
0.36	0.92	0	
0.4	0.92	0	
0	0.96	0	
0.04	0.96	0	
0.08	0.96	0	
0.12	0.96	0	
0.16	0.96	0	
0.2	0.96	0	
0.24	0.96	0	
0.28	0.96	0	
0.32	0.96	0	
0.36	0.96	0	
0.4	0.96	0	
0	1	0	
0.04	1	0	
0.08	1	0	
0.12	1	0	
0.16	1	0	
0.2	1	0	
0.24	1	0	
0.28	1	0	
0.32	1	0	
0.36	1	0	
0.4	1	0	
0	0	0.04	
0.04	0	0.04	
0.08	0	0.04	
0.12	0	0.04	
0.16	0	0.04	
0.2	0	0.04	
0.24	0	0.04	
0.28	0	0.04	
0.32	0	0.04	
0.36	0	0.04	
0.4	0	0.04	
0	0.04	0.04	
0.04	0.04	0.04	
0.08	0.04	0.04	
0.12	0.04	0.04	
0.16	0.04	0.04	
0.2	0.04	0.04	
0.24	0.04	0.04	
0.28	0.04	0.04	
0.32	0.04	0.04	
0.36	0.04	0.04	
0.4	0.04	0.04	
0	0.08	0.04	
0.04	0.08	0.04	
0.08	0.08	0.04	
0.12	0.08	0.04	
0.16	0.08	0.04	
0.2	0.08	0.04	
0.24	0.08	0.04	
0.28	0.08	0.04	
0.32	0.08	0.04	
0.36	0.08	0.04	
0.4	0.08	0.04	
0	0.12	0.04	
0.04	0.12	0.04	
0.08	0.12	0.04	
0.12	0.12	0.04	
0.16	0.12	0.04	
0.2	0.12	0.04	
0.24	0.12	0.04	
0.28	0.12	0.04	
0.32	0.12	0.04	
0.36	0.12	0.04	
0.4	0.12	0.04	
0	0.16	0.04	
0.04	0.16	0.04	
0.08	0.16	0.04	
0.12	0.16	0.04	
0.16	0.16	0.04	
0.2	0.16	0.04	
0.24	0.16	0.04	
0.28	0.16	0.04	
0.32	0.16	0.04	
0.36	0.16	0.04	
0.4	0.16	0.04	
0	0.2	0.04	
0.04	0.2	0.04	
0.08	0.2	0.04	
0.12	0.2	0.04	
0.16	0.2	0.04	
0.2	0.2	0.04	
0.24	0.2	0.04	
0.28	0.2	0.04	
0.32	0.2	0.04	
0.36	0.2	0.04	
0.4	0.2	0.04	
0	0.24	0.04	
0.04	0.24	0.04	
0.08	0.24	0.04	
0.12	0.24	0.04	
0.16	0.24	0.04	
0.2	0.24	0.04	
0.24	0.24	0.04	
0.28	0.24	0.04	
0.32	0.24	0.04	
0.36	0.24	0.04	
0.4	0.24	0.04	
0	0.28	0.04	
0.04	0.28	0.04	
0.08	0.28	0.04	
0.12	0.28	0.04	
0.16	0.28	0.04	
0.2	0.28	0.04	
0.24	0.28	0.04	
0.28	0.28	0.04	
0.32	0.28	0.04	
0.36	0.28	0.04	
0.4	0.28	0.04	
0	0.32	0.04	
0.04	0.32	0.04	
0.08	0.32	0.04	
0.12	0.32	0.04	
0.16	0.32	0.04	
0.2	0.32	0.04	
0.24	0.32	0.04	
0.28	0.32	0.04	
0.32	0.32	0.04	
0.36	0.32	0.04	
0.4	0.32	0.04	
0	0.36	0.04	
0.04	0.36	0.04	
0.08	0.36	0.04	
0.12	0.36	0.04	
0.16	0.36	0.04	
0.2	0.36	0.04	
0.24	0.36	0.04	
0.28	0.36	0.04	
0.32	0.36	0.04	
0.36	0.36	0.04	
0.4	0.36	0.04	
0	0.4	0.04	
0.04	0.4	0.04	
0.08	0.4	0.04	
0.12	0.4	0.04	
0.16	0.4	0.04	
0.2	0.4	0.04	
0.24	0.4	0.04	
0.28	0.4	0.04	
0.32	0.4	0.04	
0.36	0.4	0.04	
0.4	0.4	0.04	
0	0.44	0.04	
0.04	0.44	0.04	
0.08	0.44	0.04	
0.12	0.44	0.04	
0.16	0.44	0.04	
0.2	0.44	0.04	
0.24	0.44	0.04	
0.28	0.44	0.04	
0.32	0.44	0.04	
0.36	0.44	0.04	
0.4	0.44	0.04	
0	0.48	0.04	
0.04	0.48	0.04	
0.08	0.48	0.04	
0.12	0.48	0.04	
0.16	0.48	0.04	
0.2	0.48	0.04	
0.24	0.48	0.04	
0.28	0.48	0.04	
0.32	0.48	0.04	
0.36	0.48	0.04	
0.4	0.48	0.04	
0	0.52	0.04	
0.04	0.52	0.04	
0.08	0.52	0.04	
0.12	0.52	0.04	
0.16	0.52	0.04	
0.2	0.52	0.04	
0.24	0.52	0.04	
0.28	0.52	0.04	
0.32	0.52	0.04	
0.36	0.52	0.04	
0.4	0.52	0.04	
0	0.56	0.04	
0.04	0.56	0.04	
0.08	0.56	0.04	
0.12	0.56	0.04	
0.16	0.56	0.04	
0.2	0.56	0.04	
0.24	0.56	0.04	
0.28	0.56	0.04	
0.32	0.56	0.04	
0.36	0.56	0.04	
0.4	0.56	0.04	
0	0.6	0.04	
0.04	0.6	0.04	
0.08	0.6	0.04	
0.12	0.6	0.04	
0.16	0.6	0.04	
0.2	0.6	0.04	
0.24	0.6	0.04	
0.28	0.6	0.04	
0.32	0.6	0.04	
0.36	0.6	0.04	
0.4	0.6	0.04	
0	0.64	0.04	
0.04	0.64	0.04	
0.08	0.64	0.04	
0.12	0.64	0.04	
0.16	0.64	0.04	
0.2	0.64	0.04	
0.24	0.64	0.04	
0.28	0.64	0.04	
0.32	0.64	0.04	
0.36	0.64	0.04	
0.4	0.64	0.04	
0	0.68	0.04	
0.04	0.68	0.04	
0.08	0.68	0.04	
0.12	0.68	0.04	
0.16	0.68	0.04	
0.2	0.68	0.04	
0.24	0.68	0.04	
0.28	0.68	0.04	
0.32	0.68	0.04	
0.36	0.68	0.04	
0.4	0.68	0.04	
0	0.72	0.04	
0.04	0.72	0.04	
0.08	0.72	0.04	
0.12	0.72	0.04	
0.16	0.72	0.04	
0.2	0.72	0.04	
0.24	0.72	0.04	
0.28	0.72	0.04	
0.32	0.72	0.04	
0.36	0.72	0.04	
0.4	0.72	0.04	
0	0.76	0.04	
0.04	0.76	0.04	
0.08	0.76	0.04	
0.12	0.76	0.04	
0.16	0.76	0.04	
0.2	0.76	0.04	
0.24	0.76	0.04	
0.28	0.76	0.04	
0.32	0.76	0.04	
0.36	0.76	0.04	
0.4	0.76	0.04	
0	0.8	0.04	
0.04	0.8	0.04	
0.08	0.8	0.04	
0.12	0.8	0.04	
0.16	0.8	0.04	
0.2	0.8	0.04	
0.24	0.8	0.04	
0.28	0.8	0.04	
0.32	0.8	0.04	
0.36	0.8	0.04	
0.4	0.8	0.04	
0	0.84	0.04	
0.04	0.84	0.04	
0.08	0.84	0.04	
0.12	0.84	0.04	
0.16	0.84	0.04	
0.2	0.84	0.04	
0.24	0.84	0.04	
0.28	0.84	0.04	
0.32	0.84	0.04	
0.36	0.84	0.04	
0.4	0.84	0.04	
0	0.88	0.04	
0.04	0.88	0.04	
0.08	0.88	0.04	
0.12	0.88	0.04	
0.16	0.88	0.04	
0.2	0.88	0.04	
0.24	0.88	0.04	
0.28	0.88	0.04	
0.32	0.88	0.04	
0.36	0.88	0.04	
0.4	0.88	0.04	
0	0.92	0.04	
0.04	0.92	0.04	
0.08	0.92	0.04	
0.12	0.92	0.04	
0.16	0.92	0.04	
0.2	0.92	0.04	
0.24	0.92	0.04	
0.28	0.92	0.04	
0.32	0.92	0.04	
0.36	0.92	0.04	
0.4	0.92	0.04	
0	0.96	0.04	
0.04	0.96	0.04	
0.08	0.96	0.04	
0.12	0.96	0.04	
0.16	0.96	0.04	
0.2	0.96	0.04	
0.24	0.96	0.04	
0.28	0.96	0.04	
0.32	0.96	0.04	
0.36	0.96	0.04	
0.4	0.96	0.04	
0	1	0.04	
0.04	1	0.04	
0.08	1	0.04	
0.12	1	0.04	
0.16	1	0.04	
0.2	1	0.04	
0.24	1	0.04	
0.28	1	0.04	
0.32	1	0.04	
0.36	1	0.04	
0.4	1	0.04	
0	0	0.08	
0.04	0	0.08	
0.08	0	0.08	
0.12	0	0.08	
0.16	0	0.08	
0.2	0	0.08	
0.24	0	0.08	
0.28	0	0.08	
0.32	0	0.08	
0.36	0	0.08	
0.4	0	0.08	
0	0.04	0.08	
0.04	0.04	0.08	
0.08	0.04	0.08	
0.12	0.04	0.08	
0.16	0.04	0.08	
0.2	0.04	0.08	
0.24	0.04	0.08	
0.28	0.04	0.08	
0.32	0.04	0.08	
0.36	0.04	0.08	
0.4	0.04	0.08	
0	0.08	0.08	
0.04	0.08	0.08	
0.08	0.08	0.08	
0.12	0.08	0.08	
0.16	0.08	0.08	
0.2	0.08	0.08	
0.24	0.08	0.08	
0.28	0.08	0.08	
0.32	0.08	0.08	
0.36	0.08	0.08	
0.4	0.08	0.08	
0	0.12	0.08	
0.04	0.12	0.08	
0.08	0.12	0.08	
0.12	0.12	0.08	
0.16	0.12	0.08	
0.2	0.12	0.08	
0.24	0.12	0.08	
0.28	0.12	0.08	
0.32	0.12	0.08	
0.36	0.12	0.08	
0.4	0.12	0.08	
0	0.16	0.08	
0.04	0.16	0.08	
0.08	0.16	0.08	
0.12	0.16	0.08	
0.16	0.16	0.08	
0.2	0.16	0.08	
0.24	0.16	0.08	
0.28	0.16	0.08	
0.32	0.16	0.08	
0.36	0.16	0.08	
0.4	0.16	0.08	
0	0.2	0.08	
0.04	0.2	0.08	
0.08	0.2	0.08	
0.12	0.2	0.08	
0.16	0.2	0.08	
0.2	0.2	0.08	
0.24	0.2	0.08	
0.28	0.2	0.08	
0.32	0.2	0.08	
0.36	0.2	0.08	
0.4	0.2	0.08	
0	0.24	0.08	
0.04	0.24	0.08	
0.08	0.24	0.08	
0.12	0.24	0.08	
0.16	0.24	0.08	
0.2	0.24	0.08	
0.24	0.24	0.08	
0.28	0.24	0.08	
0.32	0.24	0.08	
0.36	0.24	0.08	
0.4	0.24	0.08	
0	0.28	0.08	
0.04	0.28	0.08	
0.08	0.28	0.08	
0.12	0.28	0.08	
0.16	0.28	0.08	
0.2	0.28	0.08	
0.24	0.28	0.08	
0.28	0.28	0.08	
0.32	0.28	0.08	
0.36	0.28	0.08	
0.4	0.28	0.08	
0	0.32	0.08	
0.04	0.32	0.08	
0.08	0.32	0.08	
0.12	0.32	0.08	
0.16	0.32	0.08	
0.2	0.32	0.08	
0.24	0.32	0.08	
0.28	0.32	0.08	
0.32	0.32	0.08	
0.36	0.32	0.08	
0.4	0.32	0.08	
0	0.36	0.08	
0.04	0.36	0.08	
0.08	0.36	0.08	
0.12	0.36	0.08	
0.16	0.36	0.08	
0.2	0.36	0.08	
0.24	0.36	0.08	
0.28	0.36	0.08	
0.32	0.36	0.08	
0.36	0.36	0.08	
0.4	0.36	0.08	
0	0.4	0.08	
0.04	0.4	0.08	
0.08	0.4	0.08	
0.12	0.4	0.08	
0.16	0.4	0.08	
0.2	0.4	0.08	
0.24	0.4	0.08	
0.28	0.4	0.08	
0.32	0.4	0.08	
0.36	0.4	0.08	
0.4	0.4	0.08	
0	0.44	0.08	
0.04	0.44	0.08	
0.08	0.44	0.08	
0.12	0.44	0.08	
0.16	0.44	0.08	
0.2	0.44	0.08	
0.24	0.44	0.08	
0.28	0.44	0.08	
0.32	0.44	0.08	
0.36	0.44	0.08	
0.4	0.44	0.08	
0	0.48	0.08	
0.04	0.48	0.08	
0.08	0.48	0.08	
0.12	0.48	0.08	
0.16	0.48	0.08	
0.2	0.48	0.08	
[...]
POINT_DATA	14586
VECTORS u0 float
0	0	0
0.000850735	0	0
0.00139354	0	0
0.0017869	0	0
0.00212866	0	0
0.00244959	0	0
0.00277052	0	0
0.00311228	0	0
0.00350565	0	0
0.00404845	0	0
0.00489918	0	0
0.000538673	-0.00161732	0
0.00103414	-0.00181159	0
0.00146865	-0.00182741	0
0.00182681	-0.00184454	0
0.00214626	-0.00185384	0
0.00244959	-0.00185689	0
0.00275292	-0.00185384	0
0.00307237	-0.00184454	0
0.00343054	-0.00182741	0
0.00386504	-0.00181159	0
0.00436051	-0.00161732	0
0.00100162	-0.00248256	0
0.00129841	-0.00267436	0
0.00160378	-0.00273195	0
0.00189934	-0.00275821	0
0.00217872	-0.00277226	0
0.00244959	-0.00277667	0
0.00272047	-0.00277226	0
0.00299985	-0.00275821	0
0.0032954	-0.00273195	0
0.00360078	-0.00267436	0
0.00389756	-0.00248256	0
0.00126936	-0.00298147	0
0.00149927	-0.00313976	0
0.00173683	-0.00321539	0
0.0019768	-0.00325243	0
0.00221449	-0.00327057	0
0.00244959	-0.00327619	0
0.00268469	-0.00327057	0
0.00292238	-0.00325243	0
0.00316235	-0.00321539	0
0.00339991	-0.00313976	0
0.00362982	-0.00298147	0
0.00146834	-0.00332764	0
0.00165634	-0.00346256	0
0.00185065	-0.00354015	0
0.00204903	-0.0035835	0
0.00224914	-0.00360553	0
0.00244959	-0.00361232	0
0.00265004	-0.00360553	0
0.00285015	-0.0035835	0
0.00304854	-0.00354015	0
0.00324285	-0.00346256	0
0.00343084	-0.00332764	0
0.00162696	-0.00358943	0
0.0017848	-0.00370661	0
0.0019467	-0.00378179	0
0.00211234	-0.00382748	0
0.0022804	-0.00385194	0
0.00244959	-0.00385963	0
0.00261878	-0.00385194	0
0.00278685	-0.00382748	0
0.00295248	-0.00378179	0
0.00311439	-0.00370661	0
0.00327222	-0.00358943	0
0.00175964	-0.0037989	0
0.00189288	-0.00390255	0
0.00202865	-0.00397384	0
0.00216718	-0.0040197	0
0.00230783	-0.00404521	0
0.00244959	-0.00405338	0
0.00259135	-0.00404521	0
0.002732	-0.0040197	0
0.00287053	-0.00397384	0
0.00300631	-0.00390255	0
0.00313954	-0.0037989	0
0.00187449	-0.0039731	0
0.00198638	-0.0040664	0
0.00209978	-0.00413358	0
0.00221505	-0.00417846	0
0.00233189	-0.0042041	0
0.00244959	-0.00421243	0
0.00256729	-0.0042041	0
0.00268413	-0.00417846	0
0.00279941	-0.00413358	0
0.00291281	-0.0040664	0
0.00302469	-0.0039731	0
0.00197668	-0.00412246	0
0.0020693	-0.00420785	0
0.00216279	-0.0042712	0
0.00225748	-0.0043146	0
0.00235323	-0.00433985	0
0.00244959	-0.00434812	0
0.00254595	-0.00433985	0
0.0026417	-0.0043146	0
0.00273639	-0.0042712	0
0.00282988	-0.00420785	0
0.0029225	-0.00412246	0
0.00206971	-0.00425391	0
0.00214451	-0.00433325	0
0.0022198	-0.00439326	0
0.00229581	-0.00443506	0
0.0023725	-0.00445966	0
0.00244959	-0.00446778	0
0.00252668	-0.00445966	0
0.00260337	-0.00443506	0
0.00267939	-0.00439326	0
0.00275467	-0.00433325	0
0.00282947	-0.00425391	0
0.00215605	-0.00437229	0
0.00221409	-0.00444702	0
0.00227238	-0.00450425	0
0.00233109	-0.00454452	0
0.00239022	-0.00456841	0
0.00244959	-0.00457633	0
0.00250896	-0.00456841	0
0.00256809	-0.00454452	0
0.0026268	-0.00450425	0
0.00268509	-0.00444702	0
0.00274313	-0.00437229	0
0.00223748	-0.00448118	0
0.00227955	-0.00455243	0
0.00232173	-0.00460738	0
0.00236414	-0.00464632	0
0.00240679	-0.00466953	0
0.00244959	-0.00467723	0
0.00249239	-0.00466953	0
0.00253504	-0.00464632	0
0.00257746	-0.00460738	0
0.00261964	-0.00455243	0
0.0026617	-0.00448118	0
0.00231532	-0.0045833	0
0.002342	-0.00465194	0
0.00236872	-0.00470511	0
0.00239557	-0.00474292	0
0.00242254	-0.00476553	0
0.00244959	-0.00477305	0
0.00247664	-0.00476553	0
0.00250362	-0.00474292	0
0.00253046	-0.00470511	0
0.00255719	-0.00465194	0
0.00258387	-0.0045833	0
0.00239054	-0.00468081	0
0.00240228	-0.00474754	0
0.00241403	-0.00479935	0
0.00242583	-0.00483627	0
0.00243769	-0.00485838	0
0.00244959	-0.00486574	0
0.00246149	-0.00485838	0
0.00247335	-0.00483627	0
0.00248515	-0.00479935	0
0.0024969	-0.00474754	0
0.00250864	-0.00468081	0
0.0024639	-0.00477551	0
0.00246103	-0.00484088	0
0.00245815	-0.00489168	0
0.00245528	-0.00492793	0
0.00245243	-0.00494965	0
0.00244959	-0.00495689	0
0.00244676	-0.00494965	0
0.00244391	-0.00492793	0
0.00244104	-0.00489168	0
0.00243816	-0.00484088	0
0.00243528	-0.00477551	0
0.002536	-0.00486891	0
0.00251874	-0.00493337	0
0.00250146	-0.00498348	0
0.00248418	-0.00501924	0
0.00246689	-0.00504068	0
0.00244959	-0.00504783	0
0.0024323	-0.00504068	0
0.00241501	-0.00501924	0
0.00239772	-0.00498348	0
0.00238044	-0.00493337	0
0.00236319	-0.00486891	0
0.0026073	-0.00496237	0
0.00257581	-0.00502629	0
0.00254429	-0.00507597	0
0.00251275	-0.00511143	0
0.00248118	-0.00513268	0
0.00244959	-0.00513976	0
0.00241801	-0.00513268	0
0.00238644	-0.00511143	0
0.00235489	-0.00507597	0
0.00232338	-0.00502629	0
0.00229189	-0.00496237	0
0.0026782	-0.00505714	0
0.00263256	-0.00512085	0
0.00258688	-0.00517032	0
0.00254115	-0.00520561	0
0.00249539	-0.00522677	0
0.00244959	-0.00523381	0
0.0024038	-0.00522677	0
0.00235803	-0.00520561	0
0.0023123	-0.00517032	0
0.00226662	-0.00512085	0
0.00222098	-0.00505714	0
0.00274905	-0.00515445	0
0.00268927	-0.0052182	0
0.00262945	-0.00526766	0
0.00256955	-0.00530292	0
0.00250959	-0.00532403	0
0.00244959	-0.00533107	0
0.0023896	-0.00532403	0
0.00232964	-0.00530292	0
0.00226974	-0.00526766	0
0.00220991	-0.0052182	0
0.00215014	-0.00515445	0
0.00282013	-0.0052555	0
0.00274619	-0.00531954	0
0.00267217	-0.00536915	0
0.00259805	-0.00540446	0
0.00252384	-0.00542561	0
0.00244959	-0.00543264	0
0.00237534	-0.00542561	0
0.00230114	-0.00540446	0
0.00222702	-0.00536915	0
0.00215299	-0.00531954	0
0.00207905	-0.0052555	0
0.00289172	-0.0053616	0
0.00280351	-0.00542611	0
0.00271519	-0.00547598	0
0.00262675	-0.00551145	0
0.0025382	-0.00553265	0
0.00244959	-0.00553971	0
0.00236098	-0.00553265	0
0.00227243	-0.00551145	0
0.00218399	-0.00547598	0
0.00209567	-0.00542611	0
0.00200747	-0.0053616	0
0.00296401	-0.0054741	0
0.0028614	-0.00553923	0
0.00275864	-0.00558948	0
0.00265573	-0.00562514	0
0.00255269	-0.00564644	0
0.00244959	-0.00565352	0
0.00234649	-0.00564644	0
0.00224346	-0.00562514	0
0.00214054	-0.00558948	0
0.00203778	-0.00553923	0
0.00193518	-0.0054741	0
0.00303717	-0.00559454	0
0.00291997	-0.00566039	0
0.00280257	-0.00571107	0
0.00268501	-0.00574696	0
0.00256733	-0.00576837	0
0.00244959	-0.00577549	0
0.00233185	-0.00576837	0
0.00221417	-0.00574696	0
0.00209661	-0.00571107	0
0.00197921	-0.00566039	0
0.00186201	-0.00559454	0
0.0031113	-0.00572459	0
0.00297924	-0.00579123	0
0.00284698	-0.00584237	0
0.00271457	-0.00587851	0
0.00258209	-0.00590005	0
0.00244959	-0.00590721	0
0.00231709	-0.00590005	0
0.00218461	-0.00587851	0
0.0020522	-0.00584237	0
0.00191994	-0.00579123	0
0.00178789	-0.00572459	0
0.00318636	-0.00586617	0
0.00303917	-0.00593364	0
0.00289172	-0.00598522	0
0.00274426	-0.00602164	0
0.00259689	-0.00604334	0
0.00244959	-0.00605055	0
0.00230229	-0.00604334	0
0.00215492	-0.00602164	0
0.00200746	-0.00598522	0
0.00186001	-0.00593364	0
0.00171282	-0.00586617	0
0.00326278	-0.00602142	0
0.00309942	-0.00608968	0
0.00293638	-0.00614176	0
0.0027738	-0.00617854	0
0.00261159	-0.00620046	0
0.00244959	-0.00620774	0
0.00228759	-0.00620046	0
0.00212539	-0.00617854	0
0.00196281	-0.00614176	0
0.00179976	-0.00608968	0
0.0016364	-0.00602142	0
0.000753996	-0.00275021	-0.000885003
0.00107127	-0.00296183	-0.00109048
0.00146213	-0.00304624	-0.00106352
0.00181752	-0.00309497	-0.00105262
0.00214068	-0.00312022	-0.00104652
0.00244959	-0.00312816	-0.0010447
0.0027585	-0.00312022	-0.00104652
0.00308167	-0.00309497	-0.00105262
0.00343705	-0.00304624	-0.00106352
0.00382791	-0.00296183	-0.00109048
0.00414519	-0.00275021	-0.000885003
0.000934492	-0.00255553	-9.26828e-05
0.00121174	-0.00270325	-0.000243045
0.00154196	-0.00277785	-0.000237337
0.00186131	-0.00281104	-0.000223584
0.00216062	-0.0028289	-0.000214866
0.00244959	-0.00283451	-0.00021202
0.00273856	-0.0028289	-0.000214866
0.00303787	-0.00281104	-0.000223584
0.00335722	-0.00277785	-0.000237337
0.00368745	-0.00270325	-0.000243045
0.00396469	-0.00255553	-9.26828e-05
0.0011096	-0.00285268	-0.000123288
0.00137445	-0.0030013	-0.000217766
0.00165048	-0.00307537	-0.000232898
0.00192342	-0.00311073	-0.000231303
0.00218915	-0.00312837	-0.000227736
0.00244959	-0.00313391	-0.000226335
0.00271003	-0.00312837	-0.000227736
0.00297576	-0.00311073	-0.000231303
0.00324871	-0.00307537	-0.000232898
0.00352473	-0.0030013	-0.000217766
0.00378958	-0.00285268	-0.000123288
0.00132021	-0.00318075	-0.000141237
0.00153662	-0.00332222	-0.000197754
0.00176331	-0.00339741	-0.000215616
0.00199289	-0.00343765	-0.000219686
0.00222187	-0.00345779	-0.000219782
0.00244959	-0.00346399	-0.000219503
0.00267731	-0.00345779	-0.000219782
0.0029063	-0.00343765	-0.000219686
0.00313587	-0.00339741	-0.000215616
0.00336256	-0.00332222	-0.000197754
0.00357897	-0.00318075	-0.000141237
0.00149538	-0.00345524	-0.000146129
0.00167784	-0.00358134	-0.000181499
0.00186633	-0.00365711	-0.000196819
0.00205923	-0.00370087	-0.000202691
0.0022541	-0.00372366	-0.000204559
0.00244959	-0.00373074	-0.000204947
0.00264508	-0.00372366	-0.000204559
0.00283996	-0.00370087	-0.000202691
0.00303285	-0.00365711	-0.000196819
0.00322135	-0.00358134	-0.000181499
0.0034038	-0.00345524	-0.000146129
0.00164301	-0.00368136	-0.000138343
0.00179781	-0.00379345	-0.000161392
0.00195653	-0.00386689	-0.000173385
0.00211887	-0.00391228	-0.000179154
0.00228366	-0.00393686	-0.000181601
0.00244959	-0.00394463	-0.000182259
0.00261552	-0.00393686	-0.000181601
0.00278031	-0.00391228	-0.000179154
0.00294265	-0.00386689	-0.000173385
0.00310138	-0.00379345	-0.000161392
0.00325618	-0.00368136	-0.000138343
0.00176978	-0.00387036	-0.000122671
0.00190119	-0.0039709	-0.000138207
0.002035	-0.00404082	-0.000147328
0.00217147	-0.00408619	-0.000152325
0.00230999	-0.00411158	-0.000154738
0.00244959	-0.00411975	-0.000155447
0.00258919	-0.00411158	-0.000154738
0.00272771	-0.00408619	-0.000152325
0.00286418	-0.00404082	-0.000147328
0.00299799	-0.0039709	-0.000138207
0.0031294	-0.00387036	-0.000122671
0.00188121	-0.00403183	-0.000101865
0.00199189	-0.00412314	-0.000112626
0.002104	-0.00418929	-0.000119496
0.00221792	-0.00423369	-0.000123588
0.00233334	-0.00425914	-0.000125714
0.00244959	-0.00426743	-0.000126368
0.00256585	-0.00425914	-0.000125714
0.00268126	-0.00423369	-0.000123588
0.00279518	-0.00418929	-0.000119496
0.0029073	-0.00412314	-0.000112626
0.00301798	-0.00403183	-0.000101865
0.00198128	-0.0041728	-7.76796e-05
0.00207307	-0.00425686	-8.52985e-05
0.00216568	-0.00431944	-9.04622e-05
0.00225944	-0.00436244	-9.3716e-05
0.00235423	-0.00438749	-9.54873e-05
0.00244959	-0.00439571	-9.60469e-05
0.00254496	-0.00438749	-9.54873e-05
0.00263974	-0.00436244	-9.3716e-05
0.0027335	-0.00431944	-9.04622e-05
0.00282612	-0.00425686	-8.52985e-05
0.0029179	-0.0041728	-7.76796e-05
0.00207294	-0.00429845	-5.11848e-05
0.00214715	-0.00437688	-5.66731e-05
0.00222182	-0.00443632	-6.05553e-05
0.00229718	-0.00447778	-6.30992e-05
0.00237319	-0.00450222	-6.45274e-05
0.00244959	-0.00451028	-6.49865e-05
0.00252599	-0.00450222	-6.45274e-05
0.002602	-0.00447778	-6.30992e-05
0.00267737	-0.00443632	-6.05553e-05
0.00275203	-0.00437688	-5.66731e-05
0.00282624	-0.00429845	-5.11848e-05
0.00215836	-0.00441268	-2.30425e-05
0.00221597	-0.00448678	-2.70436e-05
0.00227382	-0.00454357	-2.99614e-05
0.00233207	-0.00458358	-3.19262e-05
0.00239071	-0.00460732	-3.30528e-05
0.00244959	-0.00461519	-3.34192e-05
0.00250847	-0.00460732	-3.30528e-05
0.00256712	-0.00458358	-3.19262e-05
0.00262537	-0.00454357	-2.99614e-05
0.00268321	-0.00448678	-2.70436e-05
0.00274082	-0.00441268	-2.30425e-05
0.00223916	-0.00451852	6.34581e-06
0.0022809	-0.0045893	3.41302e-06
0.00232276	-0.00464393	1.22808e-06
0.00236484	-0.00468266	-2.71431e-07
0.00240715	-0.00470574	-1.14376e-06
0.00244959	-0.00471342	-1.42967e-06
0.00249204	-0.00470574	-1.14376e-06
0.00253434	-0.00468266	-2.71431e-07
0.00257642	-0.00464393	1.22808e-06
0.00261828	-0.0045893	3.41302e-06
0.00266003	-0.00451852	6.34581e-06
0.00231653	-0.00461835	3.67472e-05
0.00234298	-0.00468664	3.46052e-05
0.00236946	-0.00473956	3.29858e-05
0.00239607	-0.0047772	3.18598e-05
0.00242279	-0.00479971	3.11982e-05
0.00244959	-0.0048072	3.09801e-05
0.00247639	-0.00479971	3.11982e-05
0.00250312	-0.0047772	3.18598e-05
0.00252972	-0.00473956	3.29858e-05
0.00255621	-0.00468664	3.46052e-05
0.00258265	-0.00461835	3.67472e-05
0.00239141	-0.00471411	6.80418e-05
0.00240298	-0.00478057	6.65042e-05
0.00241456	-0.00483218	6.53302e-05
0.00242618	-0.00486896	6.45065e-05
0.00243787	-0.00489099	6.40192e-05
0.00244959	-0.00489833	6.3858e-05
0.00246131	-0.00489099	6.40192e-05
0.002473	-0.00486896	6.45065e-05
0.00248463	-0.00483218	6.53302e-05
0.00249621	-0.00478057	6.65042e-05
0.00250778	-0.00471411	6.80418e-05
0.0024645	-0.00480745	0.000100188
0.00246151	-0.00487261	9.91286e-05
0.00245851	-0.00492324	9.8314e-05
0.00245552	-0.00495937	9.77389e-05
0.00245255	-0.00498103	9.73971e-05
0.00244959	-0.00498825	9.72837e-05
0.00244663	-0.00498103	9.73971e-05
0.00244367	-0.00495937	9.77389e-05
0.00244068	-0.00492324	9.8314e-05
0.00243768	-0.00487261	9.91286e-05
0.00243468	-0.00480745	0.000100188
0.00253637	-0.00489979	0.000133203
0.00251904	-0.00496407	0.000132534
0.00250169	-0.00501404	0.000132018
0.00248433	-0.0050497	0.000131652
0.00246696	-0.00507109	0.000131433
0.00244959	-0.00507821	0.000131361
0.00243222	-0.00507109	0.000131433
0.00241485	-0.0050497	0.000131652
0.00239749	-0.00501404	0.000132018
0.00238014	-0.00496407	0.000132534
0.00236281	-0.00489979	0.000133203
0.00260748	-0.00499241	0.000167144
0.00257596	-0.00505617	0.000166809
0.0025444	-0.00510573	0.000166548
0.00251282	-0.0051411	0.000166362
0.00248121	-0.0051623	0.00016625
0.00244959	-0.00516937	0.000166212
0.00241797	-0.0051623	0.00016625
0.00238636	-0.0051411	0.000166362
0.00235478	-0.00510573	0.000166548
0.00232323	-0.00505617	0.000166809
0.0022917	-0.00499241	0.000167144
0.00267822	-0.00508651	0.000202109
0.00263258	-0.00515007	0.000202067
0.00258689	-0.00519944	0.000202032
0.00254116	-0.00523465	0.000202004
0.00249539	-0.00525576	0.000201987
0.00244959	-0.00526279	0.000201981
0.00240379	-0.00525576	0.000201987
0.00235802	-0.00523465	0.000202004
0.00231229	-0.00519944	0.000202032
0.00226661	-0.00515007	0.000202067
0.00222096	-0.00508651	0.000202109
0.00274892	-0.00518328	0.000238225
0.00268917	-0.0052469	0.000238452
0.00262937	-0.00529626	0.000238621
0.00256949	-0.00533144	0.000238738
0.00250956	-0.00535252	0.000238805
0.00244959	-0.00535954	0.000238827
0.00238962	-0.00535252	0.000238805
0.00232969	-0.00533144	0.000238738
0.00226981	-0.00529626	0.000238621
0.00221001	-0.0052469	0.000238452
0.00215026	-0.00518328	0.000238225
0.00281986	-0.0052839	0.000275654
0.00274597	-0.00534781	0.000276134
0.002672	-0.00539732	0.000276494
0.00259794	-0.00543257	0.000276743
0.00252379	-0.00545367	0.000276888
0.00244959	-0.0054607	0.000276936
0.0023754	-0.00545367	0.000276888
0.00230125	-0.00543257	0.000276743
0.00222718	-0.00539732	0.000276494
0.00215321	-0.00534781	0.000276134
0.00207932	-0.0052839	0.000275654
0.0028913	-0.00538965	0.000314591
0.00280318	-0.00545403	0.000315316
0.00271495	-0.00550382	0.000315857
0.00262658	-0.00553921	0.000316229
0.00253811	-0.00556038	0.000316444
0.00244959	-0.00556742	0.000316515
0.00236107	-0.00556038	0.000316444
0.0022726	-0.00553921	0.000316229
0.00218424	-0.00550382	0.000315857
0.002096	-0.00545403	0.000315316
0.00200788	-0.00538965	0.000314591
0.00296346	-0.00550186	0.000355273
0.00286096	-0.00556687	0.00035624
0.00275831	-0.00561702	0.000356953
0.0026555	-0.00565262	0.000357435
0.00255258	-0.00567388	0.000357712
0.00244959	-0.00568095	0.000357803
0.0023466	-0.00567388	0.000357712
0.00224368	-0.00565262	0.000357435
0.00214087	-0.00561702	0.000356953
0.00203822	-0.00556687	0.00035624
0.00193573	-0.00550186	0.000355273
0.00303647	-0.00562205	0.000397988
0.00291941	-0.00568778	0.000399196
0.00280215	-0.00573836	0.000400065
0.00268473	-0.00577419	0.00040064
0.00256719	-0.00579556	0.000400965
0.00244959	-0.00580267	0.00040107
0.00233199	-0.00579556	0.000400965
0.00221445	-0.00577419	0.00040064
0.00209703	-0.00573836	0.000400065
0.00197977	-0.00568778	0.000399196
0.00186271	-0.00562205	0.000397988
0.00311045	-0.00575189	0.000443094
0.00297856	-0.0058184	0.000444536
0.00284647	-0.00586944	0.000445533
0.00271423	-0.00590552	0.000446167
0.00258192	-0.00592702	0.000446515
0.00244959	-0.00593416	0.000446627
0.00231726	-0.00592702	0.000446515
0.00218495	-0.00590552	0.000446167
0.00205271	-0.00586944	0.000445533
0.00192062	-0.0058184	0.000444536
0.00178873	-0.00575189	0.000443094
0.00318536	-0.00589326	0.000491049
0.00303837	-0.00596059	0.000492705
0.00289112	-0.00601207	0.000493755
0.00274386	-0.00604842	0.000494386
0.0025967	-0.00607009	0.000494723
0.00244959	-0.00607728	0.000494828
0.00230249	-0.00607009	0.000494723
0.00215532	-0.00604842	0.000494386
0.00200806	-0.00601207	0.000493755
0.00186082	-0.00596059	0.000492705
0.00171382	-0.00589326	0.000491049
0.00326161	-0.00604829	0.000542563
0.0030985	-0.0061164	0.000544247
0.00293569	-0.00616838	0.000545184
0.00277334	-0.00620509	0.000545722
0.00261137	-0.00622696	0.000546
0.00244959	-0.00623423	0.000546086
0.00228782	-0.00622696	0.000546
0.00212584	-0.00620509	0.000545722
0.00196349	-0.00616838	0.000545184
0.00180069	-0.0061164	0.000544247
0.00163757	-0.00604829	0.000542563
0.00119971	-0.0038153	-0.00148436
0.00137997	-0.00386403	-0.0016715
0.0016157	-0.00394353	-0.00170369
0.00189223	-0.00399257	-0.00169678
0.00217203	-0.00402005	-0.00169031
0.00244959	-0.00402884	-0.00168787
0.00272715	-0.00402005	-0.00169031
0.00300696	-0.00399257	-0.00169678
0.00328348	-0.00394353	-0.00170369
0.00351921	-0.00386403	-0.0016715
0.00369948	-0.0038153	-0.00148436
0.00121377	-0.0036793	-0.000768142
0.00144297	-0.00376737	-0.000942978
0.00167799	-0.00384445	-0.000987553
0.00193234	-0.00389262	-0.000987323
0.00219132	-0.00391773	-0.000982349
0.00244959	-0.0039257	-0.000980192
0.00270786	-0.00391773	-0.000982349
0.00296684	-0.00389262	-0.000987323
0.00322119	-0.00384445	-0.000987553
0.00345622	-0.00376737	-0.000942978
0.00368542	-0.0036793	-0.000768142
0.00131643	-0.00358626	-0.000475972
0.00152444	-0.0036881	-0.000598991
0.00174801	-0.0037591	-0.000638926
0.00198002	-0.0038034	-0.000646239
0.00221465	-0.00382669	-0.000645323
0.00244959	-0.00383398	-0.000644383
0.00268454	-0.00382669	-0.000645323
0.00291916	-0.0038034	-0.000646239
0.00315117	-0.0037591	-0.000638926
0.00337474	-0.0036881	-0.000598991
0.00358275	-0.00358626	-0.000475972
0.00143413	-0.00366091	-0.00039796
0.00162672	-0.0037683	-0.000483285
0.00182675	-0.00383923	-0.000517801
0.00203245	-0.00388248	-0.000529309
0.00224061	-0.00390573	-0.000532142
0.00244959	-0.00391305	-0.000532521
0.00265857	-0.00390573	-0.000532142
0.00286673	-0.00388248	-0.000529309
0.00307243	-0.00383923	-0.000517801
0.00327246	-0.0037683	-0.000483285
0.00346505	-0.00366091	-0.00039796
0.00156344	-0.00379317	-0.000352798
0.00173259	-0.00389863	-0.000410646
0.00190703	-0.00396879	-0.000438658
0.00208574	-0.00401264	-0.000450871
0.00226709	-0.00403656	-0.000455496
0.00244959	-0.00404417	-0.000456631
0.00263209	-0.00403656	-0.000455496
0.00281345	-0.00401264	-0.000450871
0.00299215	-0.00396879	-0.000438658
0.00316659	-0.00389863	-0.000410646
0.00333574	-0.00379317	-0.000352798
0.00168552	-0.00393609	-0.000311705
0.00183258	-0.0040354	-0.000351344
0.00198289	-0.004104	-0.000373251
0.00213649	-0.0041482	-0.000384438
0.00229245	-0.00417284	-0.000389484
0.00244959	-0.00418075	-0.000390902
0.00260673	-0.00417284	-0.000389484
0.00276269	-0.0041482	-0.000384438
0.0029163	-0.004104	-0.000373251
0.0030666	-0.0040354	-0.000351344
0.00321366	-0.00393609	-0.000311705
0.00179753	-0.00407375	-0.000266889
0.00192398	-0.00416611	-0.000294499
0.00205246	-0.00423222	-0.000311295
0.00218327	-0.00427613	-0.000320804
0.00231593	-0.0043011	-0.000325529
0.00244959	-0.0043092	-0.000326943
0.00258325	-0.0043011	-0.000325529
0.00271591	-0.00427613	-0.000320804
0.00284672	-0.00423222	-0.000311295
0.0029752	-0.00416611	-0.000294499
0.00310166	-0.00407375	-0.000266889
0.00189994	-0.00420177	-0.000217728
0.00200728	-0.0042877	-0.000237297
0.00211583	-0.00435096	-0.000250071
0.00222595	-0.00439398	-0.000257828
0.0023374	-0.00441887	-0.000261922
0.00244959	-0.004427	-0.000263193