# vtk DataFile Version 4.1
vtk output
ASCII
DATASET UNSTRUCTURED_GRID

POINTS	2501	float
0	0	0.0	
0	1	0.0	
0	2	0.0	
0	3	0.0	
0	4	0.0	
0	5	0.0	
0	6	0.0	
0	7	0.0	
0	8	0.0	
0	9	0.0	
0	10	0.0	
0	11	0.0	
0	12	0.0	
0	13	0.0	
0	14	0.0	
0	15	0.0	
0	16	0.0	
0	17	0.0	
0	18	0.0	
0	19	0.0	
0	20	0.0	
0	21	0.0	
0	22	0.0	
0	23	0.0	
0	24	0.0	
0	25	0.0	
0	26	0.0	
0	27	0.0	
0	28	0.0	
0	29	0.0	
0	30	0.0	
0	31	0.0	
0	32	0.0	
0	33	0.0	
0	34	0.0	
0	35	0.0	
0	36	0.0	
0	37	0.0	
0	38	0.0	
0	39	0.0	
0	40	0.0	
1	0	0.0	
1	1	0.0	
1	2	0.0	
1	3	0.0	
1	4	0.0	
1	5	0.0	
1	6	0.0	
1	7	0.0	
1	8	0.0	
1	9	0.0	
1	10	0.0	
1	11	0.0	
1	12	0.0	
1	13	0.0	
1	14	0.0	
1	15	0.0	
1	16	0.0	
1	17	0.0	
1	18	0.0	
1	19	0.0	
1	20	0.0	
1	21	0.0	
1	22	0.0	
1	23	0.0	
1	24	0.0	
1	25	0.0	
1	26	0.0	
1	27	0.0	
1	28	0.0	
1	29	0.0	
1	30	0.0	
1	31	0.0	
1	32	0.0	
1	33	0.0	
1	34	0.0	
1	35	0.0	
1	36	0.0	
1	37	0.0	
1	38	0.0	
1	39	0.0	
1	40	0.0	
2	0	0.0	
2	1	0.0	
2	2	0.0	
2	3	0.0	
2	4	0.0	
2	5	0.0	
2	6	0.0	
2	7	0.0	
2	8	0.0	
2	9	0.0	
2	10	0.0	
2	11	0.0	
2	12	0.0	
2	13	0.0	
2	14	0.0	
2	15	0.0	
2	16	0.0	
2	17	0.0	
2	18	0.0	
2	19	0.0	
2	20	0.0	
2	21	0.0	
2	22	0.0	
2	23	0.0	
2	24	0.0	
2	25	0.0	
2	26	0.0	
2	27	0.0	
2	28	0.0	
2	29	0.0	
2	30	0.0	
2	31	0.0	
2	32	0.0	
2	33	0.0	
2	34	0.0	
2	35	0.0	
2	36	0.0	
2	37	0.0	
2	38	0.0	
2	39	0.0	
2	40	0.0	
3	0	0.0	
3	1	0.0	
3	2	0.0	
3	3	0.0	
3	4	0.0	
3	5	0.0	
3	6	0.0	
3	7	0.0	
3	8	0.0	
3	9	0.0	
3	10	0.0	
3	11	0.0	
3	12	0.0	
3	13	0.0	
3	14	0.0	
3	15	0.0	
3	16	0.0	
3	17	0.0	
3	18	0.0	
3	19	0.0	
3	20	0.0	
3	21	0.0	
3	22	0.0	
3	23	0.0	
3	24	0.0	
3	25	0.0	
3	26	0.0	
3	27	0.0	
3	28	0.0	
3	29	0.0	
3	30	0.0	
3	31	0.0	
3	32	0.0	
3	33	0.0	
3	34	0.0	
3	35	0.0	
3	36	0.0	
3	37	0.0	
3	38	0.0	
3	39	0.0	
3	40	0.0	
4	0	0.0	
4	1	0.0	
4	2	0.0	
4	3	0.0	
4	4	0.0	
4	5	0.0	
4	6	0.0	
4	7	0.0	
4	8	0.0	
4	9	0.0	
4	10	0.0	
4	11	0.0	
4	12	0.0	
4	13	0.0	
4	14	0.0	
4	15	0.0	
4	16	0.0	
4	17	0.0	
4	18	0.0	
4	19	0.0	
4	20	0.0	
4	21	0.0	
4	22	0.0	
4	23	0.0	
4	24	0.0	
4	25	0.0	
4	26	0.0	
4	27	0.0	
4	28	0.0	
4	29	0.0	
4	30	0.0	
4	31	0.0	
4	32	0.0	
4	33	0.0	
4	34	0.0	
4	35	0.0	
4	36	0.0	
4	37	0.0	
4	38	0.0	
4	39	0.0	
4	40	0.0	
5	0	0.0	
5	1	0.0	
5	2	0.0	
5	3	0.0	
5	4	0.0	
5	5	0.0	
5	6	0.0	
5	7	0.0	
5	8	0.0	
5	9	0.0	
5	10	0.0	
5	11	0.0	
5	12	0.0	
5	13	0.0	
5	14	0.0	
5	15	0.0	
5	16	0.0	
5	17	0.0	
5	18	0.0	
5	19	0.0	
5	20	0.0	
5	21	0.0	
5	22	0.0	
5	23	0.0	
5	24	0.0	
5	25	0.0	
5	26	0.0	
5	27	0.0	
5	28	0.0	
5	29	0.0	
5	30	0.0	
5	31	0.0	
5	32	0.0	
5	33	0.0	
5	34	0.0	
5	35	0.0	
5	36	0.0	
5	37	0.0	
5	38	0.0	
5	39	0.0	
5	40	0.0	
6	0	0.0	
6	1	0.0	
6	2	0.0	
6	3	0.0	
6	4	0.0	
6	5	0.0	
6	6	0.0	
6	7	0.0	
6	8	0.0	
6	9	0.0	
6	10	0.0	
6	11	0.0	
6	12	0.0	
6	13	0.0	
6	14	0.0	
6	15	0.0	
6	16	0.0	
6	17	0.0	
6	18	0.0	
6	19	0.0	
6	20	0.0	
6	21	0.0	
6	22	0.0	
6	23	0.0	
6	24	0.0	
6	25	0.0	
6	26	0.0	
6	27	0.0	
6	28	0.0	
6	29	0.0	
6	30	0.0	
6	31	0.0	
6	32	0.0	
6	33	0.0	
6	34	0.0	
6	35	0.0	
6	36	0.0	
6	37	0.0	
6	38	0.0	
6	39	0.0	
6	40	0.0	
7	0	0.0	
7	1	0.0	
7	2	0.0	
7	3	0.0	
7	4	0.0	
7	5	0.0	
7	6	0.0	
7	7	0.0	
7	8	0.0	
7	9	0.0	
7	10	0.0	
7	11	0.0	
7	12	0.0	
7	13	0.0	
7	14	0.0	
7	15	0.0	
7	16	0.0	
7	17	0.0	
7	18	0.0	
7	19	0.0	
7	20	0.0	
7	21	0.0	
7	22	0.0	
7	23	0.0	
7	24	0.0	
7	25	0.0	
7	26	0.0	
7	27	0.0	
7	28	0.0	
7	29	0.0	
7	30	0.0	
7	31	0.0	
7	32	0.0	
7	33	0.0	
7	34	0.0	
7	35	0.0	
7	36	0.0	
7	37	0.0	
7	38	0.0	
7	39	0.0	
7	40	0.0	
8	0	0.0	
8	1	0.0	
8	2	0.0	
8	3	0.0	
8	4	0.0	
8	5	0.0	
8	6	0.0	
8	7	0.0	
8	8	0.0	
8	9	0.0	
8	10	0.0	
8	11	0.0	
8	12	0.0	
8	13	0.0	
8	14	0.0	
8	15	0.0	
8	16	0.0	
8	17	0.0	
8	18	0.0	
8	19	0.0	
8	20	0.0	
8	21	0.0	
8	22	0.0	
8	23	0.0	
8	24	0.0	
8	25	0.0	
8	26	0.0	
8	27	0.0	
8	28	0.0	
8	29	0.0	
8	30	0.0	
8	31	0.0	
8	32	0.0	
8	33	0.0	
8	34	0.0	
8	35	0.0	
8	36	0.0	
8	37	0.0	
8	38	0.0	
8	39	0.0	
8	40	0.0	
9	0	0.0	
9	1	0.0	
9	2	0.0	
9	3	0.0	
9	4	0.0	
9	5	0.0	
9	6	0.0	
9	7	0.0	
9	8	0.0	
9	9	0.0	
9	10	0.0	
9	11	0.0	
9	12	0.0	
9	13	0.0	
9	14	0.0	
9	15	0.0	
9	16	0.0	
9	17	0.0	
9	18	0.0	
9	19	0.0	
9	20	0.0	
9	21	0.0	
9	22	0.0	
9	23	0.0	
9	24	0.0	
9	25	0.0	
9	26	0.0	
9	27	0.0	
9	28	0.0	
9	29	0.0	
9	30	0.0	
9	31	0.0	
9	32	0.0	
9	33	0.0	
9	34	0.0	
9	35	0.0	
9	36	0.0	
9	37	0.0	
9	38	0.0	
9	39	0.0	
9	40	0.0	
10	0	0.0	
10	1	0.0	
10	2	0.0	
10	3	0.0	
10	4	0.0	
10	5	0.0	
10	6	0.0	
10	7	0.0	
10	8	0.0	
10	9	0.0	
10	10	0.0	
10	11	0.0	
10	12	0.0	
10	13	0.0	
10	14	0.0	
10	15	0.0	
10	16	0.0	
10	17	0.0	
10	18	0.0	
10	19	0.0	
10	20	0.0	
10	21	0.0	
10	22	0.0	
10	23	0.0	
10	24	0.0	
10	25	0.0	
10	26	0.0	
10	27	0.0	
10	28	0.0	
10	29	0.0	
10	30	0.0	
10	31	0.0	
10	32	0.0	
10	33	0.0	
10	34	0.0	
10	35	0.0	
10	36	0.0	
10	37	0.0	
10	38	0.0	
10	39	0.0	
10	40	0.0	
11	0	0.0	
11	1	0.0	
11	2	0.0	
11	3	0.0	
11	4	0.0	
11	5	0.0	
11	6	0.0	
11	7	0.0	
11	8	0.0	
11	9	0.0	
11	10	0.0	
11	11	0.0	
11	12	0.0	
11	13	0.0	
11	14	0.0	
11	15	0.0	
11	16	0.0	
11	17	0.0	
11	18	0.0	
11	19	0.0	
11	20	0.0	
11	21	0.0	
11	22	0.0	
11	23	0.0	
11	24	0.0	
11	25	0.0	
11	26	0.0	
11	27	0.0	
11	28	0.0	
11	29	0.0	
11	30	0.0	
11	31	0.0	
11	32	0.0	
11	33	0.0	
11	34	0.0	
11	35	0.0	
11	36	0.0	
11	37	0.0	
11	38	0.0	
11	39	0.0	
11	40	0.0	
12	0	0.0	
12	1	0.0	
12	2	0.0	
12	3	0.0	
12	4	0.0	
12	5	0.0	
12	6	0.0	
12	7	0.0	
12	8	0.0	
12	9	0.0	
12	10	0.0	
12	11	0.0	
12	12	0.0	
12	13	0.0	
12	14	0.0	
12	15	0.0	
12	16	0.0	
12	17	0.0	
12	18	0.0	
12	19	0.0	
12	20	0.0	
12	21	0.0	
12	22	0.0	
12	23	0.0	
12	24	0.0	
12	25	0.0	
12	26	0.0	
12	27	0.0	
12	28	0.0	
12	29	0.0	
12	30	0.0	
12	31	0.0	
12	32	0.0	
12	33	0.0	
12	34	0.0	
12	35	0.0	
12	36	0.0	
12	37	0.0	
12	38	0.0	
12	39	0.0	
12	40	0.0	
13	0	0.0	
13	1	0.0	
13	2	0.0	
13	3	0.0	
13	4	0.0	
13	5	0.0	
13	6	0.0	
13	7	0.0	
13	8	0.0	
13	9	0.0	
13	10	0.0	
13	11	0.0	
13	12	0.0	
13	13	0.0	
13	14	0.0	
13	15	0.0	
13	16	0.0	
13	17	0.0	
13	18	0.0	
13	19	0.0	
13	20	0.0	
13	21	0.0	
13	22	0.0	
13	23	0.0	
13	24	0.0	
13	25	0.0	
13	26	0.0	
13	27	0.0	
13	28	0.0	
13	29	0.0	
13	30	0.0	
13	31	0.0	
13	32	0.0	
13	33	0.0	
13	34	0.0	
13	35	0.0	
13	36	0.0	
13	37	0.0	
13	38	0.0	
13	39	0.0	
13	40	0.0	
14	0	0.0	
14	1	0.0	
14	2	0.0	
14	3	0.0	
14	4	0.0	
14	5	0.0	
14	6	0.0	
14	7	0.0	
14	8	0.0	
14	9	0.0	
14	10	0.0	
14	11	0.0	
14	12	0.0	
14	13	0.0	
14	14	0.0	
14	15	0.0	
14	16	0.0	
14	17	0.0	
14	18	0.0	
14	19	0.0	
14	20	0.0	
14	21	0.0	
14	22	0.0	
14	23	0.0	
14	24	0.0	
14	25	0.0	
14	26	0.0	
14	27	0.0	
14	28	0.0	
14	29	0.0	
14	30	0.0	
14	31	0.0	
14	32	0.0	
14	33	0.0	
14	34	0.0	
14	35	0.0	
14	36	0.0	
14	37	0.0	
14	38	0.0	
14	39	0.0	
14	40	0.0	
15	0	0.0	
15	1	0.0	
15	2	0.0	
15	3	0.0	
15	4	0.0	
15	5	0.0	
15	6	0.0	
15	7	0.0	
15	8	0.0	
15	9	0.0	
15	10	0.0	
15	11	0.0	
15	12	0.0	
15	13	0.0	
15	14	0.0	
15	15	0.0	
15	16	0.0	
15	17	0.0	
15	18	0.0	
15	19	0.0	
15	20	0.0	
15	21	0.0	
15	22	0.0	
15	23	0.0	
15	24	0.0	
15	25	0.0	
15	26	0.0	
15	27	0.0	
15	28	0.0	
15	29	0.0	
15	30	0.0	
15	31	0.0	
15	32	0.0	
15	33	0.0	
15	34	0.0	
15	35	0.0	
15	36	0.0	
15	37	0.0	
15	38	0.0	
15	39	0.0	
15	40	0.0	
16	0	0.0	
16	1	0.0	
16	2	0.0	
16	3	0.0	
16	4	0.0	
16	5	0.0	
16	6	0.0	
16	7	0.0	
16	8	0.0	
16	9	0.0	
16	10	0.0	
16	11	0.0	
16	12	0.0	
16	13	0.0	
16	14	0.0	
16	15	0.0	
16	16	0.0	
16	17	0.0	
16	18	0.0	
16	19	0.0	
16	20	0.0	
16	21	0.0	
16	22	0.0	
16	23	0.0	
16	24	0.0	
16	25	0.0	
16	26	0.0	
16	27	0.0	
16	28	0.0	
16	29	0.0	
16	30	0.0	
16	31	0.0	
16	32	0.0	
16	33	0.0	
16	34	0.0	
16	35	0.0	
16	36	0.0	
16	37	0.0	
16	38	0.0	
16	39	0.0	
16	40	0.0	
17	0	0.0	
17	1	0.0	
17	2	0.0	
17	3	0.0	
17	4	0.0	
17	5	0.0	
17	6	0.0	
17	7	0.0	
17	8	0.0	
17	9	0.0	
17	10	0.0	
17	11	0.0	
17	12	0.0	
17	13	0.0	
17	14	0.0	
17	15	0.0	
17	16	0.0	
17	17	0.0	
17	18	0.0	
17	19	0.0	
17	20	0.0	
17	21	0.0	
17	22	0.0	
17	23	0.0	
17	24	0.0	
17	25	0.0	
17	26	0.0	
17	27	0.0	
17	28	0.0	
17	29	0.0	
17	30	0.0	
17	31	0.0	
17	32	0.0	
17	33	0.0	
17	34	0.0	
17	35	0.0	
17	36	0.0	
17	37	0.0	
17	38	0.0	
17	39	0.0	
17	40	0.0	
18	0	0.0	
18	1	0.0	
18	2	0.0	
18	3	0.0	
18	4	0.0	
18	5	0.0	
18	6	0.0	
18	7	0.0	
18	8	0.0	
18	9	0.0	
18	10	0.0	
18	11	0.0	
18	12	0.0	
18	13	0.0	
18	14	0.0	
18	15	0.0	
18	16	0.0	
18	17	0.0	
18	18	0.0	
18	19	0.0	
18	20	0.0	
18	21	0.0	
18	22	0.0	
18	23	0.0	
18	24	0.0	
18	25	0.0	
18	26	0.0	
18	27	0.0	
18	28	0.0	
18	29	0.0	
18	30	0.0	
18	31	0.0	
18	32	0.0	
18	33	0.0	
18	34	0.0	
18	35	0.0	
18	36	0.0	
18	37	0.0	
18	38	0.0	
18	39	0.0	
18	40	0.0	
19	0	0.0	
19	1	0.0	
19	2	0.0	
19	3	0.0	
19	4	0.0	
19	5	0.0	
19	6	0.0	
19	7	0.0	
19	8	0.0	
19	9	0.0	
19	10	0.0	
19	11	0.0	
19	12	0.0	
19	13	0.0	
19	14	0.0	
19	15	0.0	
19	16	0.0	
19	17	0.0	
19	18	0.0	
19	19	0.0	
19	20	0.0	
19	21	0.0	
19	22	0.0	
19	23	0.0	
19	24	0.0	
19	25	0.0	
19	26	0.0	
19	27	0.0	
19	28	0.0	
19	29	0.0	
19	30	0.0	
19	31	0.0	
19	32	0.0	
19	33	0.0	
19	34	0.0	
19	35	0.0	
19	36	0.0	
19	37	0.0	
19	38	0.0	
19	39	0.0	
19	40	0.0	
20	0	0.0	
20	1	0.0	
20	2	0.0	
20	3	0.0	
20	4	0.0	
20	5	0.0	
20	6	0.0	
20	7	0.0	
20	8	0.0	
20	9	0.0	
20	10	0.0	
20	11	0.0	
20	12	0.0	
20	13	0.0	
20	14	0.0	
20	15	0.0	
20	16	0.0	
20	17	0.0	
20	18	0.0	
20	19	0.0	
20	20	0.0	
20	21	0.0	
20	22	0.0	
20	23	0.0	
20	24	0.0	
20	25	0.0	
20	26	0.0	
20	27	0.0	
20	28	0.0	
20	29	0.0	
20	30	0.0	
20	31	0.0	
20	32	0.0	
20	33	0.0	
20	34	0.0	
20	35	0.0	
20	36	0.0	
20	37	0.0	
20	38	0.0	
20	39	0.0	
20	40	0.0	
21	0	0.0	
21	1	0.0	
21	2	0.0	
21	3	0.0	
21	4	0.0	
21	5	0.0	
21	6	0.0	
21	7	0.0	
21	8	0.0	
21	9	0.0	
21	10	0.0	
21	11	0.0	
21	12	0.0	
21	13	0.0	
21	14	0.0	
21	15	0.0	
21	16	0.0	
21	17	0.0	
21	18	0.0	
21	19	0.0	
21	20	0.0	
21	21	0.0	
21	22	0.0	
21	23	0.0	
21	24	0.0	
21	25	0.0	
21	26	0.0	
21	27	0.0	
21	28	0.0	
21	29	0.0	
21	30	0.0	
21	31	0.0	
21	32	0.0	
21	33	0.0	
21	34	0.0	
21	35	0.0	
21	36	0.0	
21	37	0.0	
21	38	0.0	
21	39	0.0	
21	40	0.0	
22	0	0.0	
22	1	0.0	
22	2	0.0	
22	3	0.0	
22	4	0.0	
22	5	0.0	
22	6	0.0	
22	7	0.0	
22	8	0.0	
22	9	0.0	
22	10	0.0	
22	11	0.0	
22	12	0.0	
22	13	0.0	
22	14	0.0	
22	15	0.0	
22	16	0.0	
22	17	0.0	
22	18	0.0	
22	19	0.0	
22	20	0.0	
22	21	0.0	
22	22	0.0	
22	23	0.0	
22	24	0.0	
22	25	0.0	
22	26	0.0	
22	27	0.0	
22	28	0.0	
22	29	0.0	
22	30	0.0	
22	31	0.0	
22	32	0.0	
22	33	0.0	
22	34	0.0	
22	35	0.0	
22	36	0.0	
22	37	0.0	
22	38	0.0	
22	39	0.0	
22	40	0.0	
23	0	0.0	
23	1	0.0	
23	2	0.0	
23	3	0.0	
23	4	0.0	
23	5	0.0	
23	6	0.0	
23	7	0.0	
23	8	0.0	
23	9	0.0	
23	10	0.0	
23	11	0.0	
23	12	0.0	
23	13	0.0	
23	14	0.0	
23	15	0.0	
23	16	0.0	
[...]
CELL_DATA	2400
SCALARS Rho float
LOOKUP_TABLE default
1
1
1
1
1
1
0.9775
1
1
1
1
1
1
0.85
0.85
0.85
0.9775
1
1
1
1
1
1
1
1
1
1
1
1
1
1
1
1
1
1
1
1
1
1
1
1
1
1
1
1
1
0.989445
1
1
0.9775
1
0.00191913
9.91807e-08
3.81163e-07
3.04409e-07
3.65606e-07
3.02908e-07
1.81012e-07
1
2.89302e-07
1
1
1
1
1
1
1
1
1
1
1
1
1
1
1
1
1
1
1
1
1
1
1
1
1
1.94235e-07
1
1
4.93049e-07
1.25554e-07
1.24976e-07
1.12085e-07
1.20822e-07
8.28456e-08
8.28456e-08
1.06086e-07
9.45892e-08
1.53275e-07
1.7256e-07
1
1
1
1
1
1
1
1
1
1
1
1
1
1
1
1
1
1
1
1
1
1
1
1
1
1
1
7.1685e-07
2.05843e-07
1.4651e-07
1.12085e-07
1.0397e-07
9.21269e-08
8.28456e-08
8.28456e-08
8.88403e-08
8.28456e-08
9.04766e-08
1.13001e-07
9.90641e-06
1
2.42606e-07
2.26487e-06
1
1
1
1
1
1
1
1
1
1
1
1
1
1
1
1
1
1
1
1
1
1
1
1
1.46025e-06
1.59227e-07
1.36243e-07
1.12085e-07
1.0982e-07
9.51205e-08
8.28456e-08
8.28456e-08
8.69088e-08
9.62183e-08
1.1043e-07
9.97533e-06
1
1.92097e-07
1.70344e-07
1.77275e-07
2.72873e-07
1
1
1
1
1
1
1
1
1
1
1
1
1
1
1
1
1
1
1
1
1
1
1
1
1.73551e-07
1.48997e-07
1.23905e-07
1.12085e-07
1.07499e-07
9.05846e-08
9.48768e-08
9.9561e-08
1.09357e-07
8.5938e-06
1
1.28006e-07
1.96095e-07
1.53576e-07
1.59308e-07
2.56603e-07
1
3.37772e-07
1
1
1
1
1
1
1
1
1
1
1
1
1
1
1
1
1
1
1
1
1
1
2.21798e-06
1.55453e-07
1.49793e-07
1.30053e-07
1.19481e-07
1.15128e-07
1.23499e-07
1.18462e-07
6.32696e-06
1
1.35041e-07
1.5603e-07
1.16825e-07
1.71217e-07
2.66003e-07
9.93869e-07
2.42088e-07
1
1
1
3.0862e-06
1
1.65782e-06
1
1
5.57572e-07
3.21027e-07
2.84249e-07
2.17233e-07
1.76349e-07
1
1
1
1
1
1
1
1
1
1
1
2.71246e-07
1.57236e-07
1.43192e-07
1.45489e-07
1.37248e-07
1.67924e-07
4.59785e-06
1
1.53457e-07
1.22468e-07
1.16309e-07
1.68187e-07
2.80665e-07
4.48148e-07
2.53142e-07
1
1
1
4.30849e-07
1
7.83282e-07
1
7.38287e-06
1
4.68108e-07
1.8985e-07
1.72104e-07
1.43258e-07
1.96753e-07
1
1
1
1
1
1
1
1
1
1
1
1
2.94696e-07
1.49296e-07
1.64112e-07
1.85154e-07
2.35438e-07
1
1.88869e-07
1.28997e-07
1.19997e-07
1.69501e-07
2.89569e-07
3.96904e-07
2.62121e-07
0.995441
1
1
4.221e-07
1
9.1331e-07
1
1
1
1
2.64363e-07
2.38978e-07
1.35656e-07
1.37969e-07
4.30043e-07
1
1
1
1
1
1
4.69535e-06
1
1
1
1
1
1
2.7302e-07
1.84918e-07
2.79973e-07
1
4.02836e-07
1.55198e-07
1.32731e-07
1.94889e-07
2.69939e-07
3.39973e-07
3.44649e-07
0.775291
0.931985
1
4.06002e-07
1
5.63173e-07
1
1
5.38205e-07
1
1
3.31307e-07
1.61013e-07
1.49862e-07
1.46747e-07
1
1
1
1
1
1
1
1.2221e-05
1
1
1
1
1
1
1
3.23761e-07
1
4.46168e-06
1.92218e-07
1.59996e-07
1.81296e-07
2.45272e-07
2.75952e-07
4.00001e-07
0.792543
4.9469e-06
1
3.25961e-07
1
3.38715e-07
1
1
2.33087e-06
1
1
1
2.01979e-07
1.55548e-07
1.29399e-07
1.55315e-07
1
1
1
1
1
1
1
4.14812e-06
4.21038e-06
1
1
1
1
1
1
1
6.59036e-06
2.68918e-07
3.10494e-07
1.76603e-07
2.4414e-07
2.51722e-07
4.94263e-07
0.544391
4.69108e-07
1
2.65715e-07
1
2.29426e-07
1
4.85603e-06
1
1
4.61179e-07
1
2.67735e-07
1.58128e-07
1.6852e-07
1.44355e-07
1.84408e-07
1
1
1
1
1
1
1
1.74621e-06
5.63805e-07
1
1
1
1
1
1
1
4.59277e-07
6.59195e-07
2.27837e-07
2.84876e-07
2.42421e-07
5.03012e-07
8.52647e-07
4.75582e-07
1
2.35152e-07
1
2.02496e-07
1
5.71576e-07
1
7.34034e-07
9.77919e-07
1
3.29942e-07
1.56999e-07
2.28077e-07
1.5227e-07
1.79009e-07
2.84533e-07
1
1
1
1
1
1
1
2.83756e-07
1.90797e-06
1
1
1
1
1
1
1
1.8255e-05
3.08916e-07
6.04467e-07
2.66686e-07
4.8539e-07
6.08576e-07
5.12107e-07
1
2.80444e-07
1
2.05155e-07
1
4.99973e-07
1
2.16117e-06
5.6615e-07
1
1
1.88789e-07
2.06988e-07
1.5537e-07
1.94503e-07
2.17978e-07
1
1
1
1
1
1
1
1
2.47276e-07
2.47389e-06
3.06312e-06
1
1
1
1
1
1
1
6.99221e-07
3.35085e-07
6.10548e-07
4.93586e-07
6.05252e-07
1
3.46433e-07
1
2.39988e-07
1
5.8568e-07
1
3.43474e-07
2.47736e-07
1
1
6.91722e-07
8.7643e-07
2.03519e-07
1.61955e-07
2.05166e-07
3.19795e-07
1
2.93047e-07
1
1
1
1
1
1
9.96141e-07
2.07107e-07
1
2.81735e-07
1
6.9951e-07
1
1
1
1
1
2.13012e-06
2.22977e-06
1.04983e-06
1
4.57452e-07
1
2.9998e-07
1
0.000577247
1
1
2.94511e-07
3.77211e-07
1
1
0.00147341
4.15908e-07
1.778e-07
3.15819e-07
2.40385e-07
1
1
2.72657e-07
1
1
1
1
1
1
2.19842e-07
1.0888e-06
2.16004e-07
1
2.81286e-07
1
3.44698e-07
1
1
1
1
1
0.85
1
5.74922e-07
1
3.9727e-07
1
0.907004
1
1
1.20412e-06
2.94624e-07
1
2.26389e-07
1
3.26896e-07
4.32804e-07
4.97156e-07
3.00591e-07
1
1
5.13739e-07
1
1
1
1
1
1
1
1.23775e-06
1.80962e-07
1
2.24505e-07
1
3.23761e-07
1
3.73106e-07
1
1
1
1
1
6.90218e-07
1
4.76814e-07
1
1
1
1
1
2.54629e-07
1
2.60533e-07
1
1.82783e-07
6.12376e-07
4.88067e-07
2.45878e-07
4.21777e-07
1
1
1
1
1
1
1
1
1
1
2.08671e-07
1
1.85352e-07
1
2.52291e-07
1
1
1
4.82032e-07
1
1
1
1
1
6.37718e-07
1
1
1
8.12447e-07
1
2.67259e-07
1
2.88825e-07
1
2.03409e-07
1
2.17052e-07
4.57463e-07
6.87952e-07
0.979755
1
4.1914e-07
1
3.2593e-07
1
1
1
1
1
1
1
1.75866e-07
1
1.94402e-07
1
1
1
1
1
1
1
1
1
1
1
1
1
6.50579e-07
1
3.06775e-07
1
2.8108e-07
1
2.3952e-07
1
2.12336e-07
1.54718e-06
1.47716e-06
5.07083e-07
1
1.73181e-06
1
2.66706e-07
1
1
1
1
1
1
1
1.85059e-07
1
1.87649e-07
1
2.23543e-07
1
1
3.9512e-07
1
5.21196e-07
1
1
1
1
1
1
4.84826e-06
1
3.6819e-07
1
3.10502e-07
1
2.74817e-07
1
2.20053e-07
1.71091e-06
5.196e-07
6.18189e-07
0.967251
1
1
1
2.02711e-07
1
1
1
1
1
1
1
1
1.83243e-07
1
1.98265e-07
1
2.77938e-07
1
1
3.55458e-07
1
4.8524e-07
1
1
1
1
1
1
5.67891e-07
1
3.92633e-07
1
2.96367e-07
1
2.51304e-07
1.67533e-06
2.48472e-07
1.39508e-06
5.96467e-07
1
0.000210624
1
1.9292e-07
1
1
1
1
1
1
1
1
3.89592e-07
1
2.62723e-07
1
2.52088e-07
1
3.24597e-07
1
1
4.04699e-07
1
5.55552e-07
1
1
1
1
1
1
5.66585e-07
1
3.73965e-07
1
2.80296e-07
1
2.64056e-07
3.33489e-06
2.92511e-07
1
3.29402e-07
1
2.2588e-07
1
2.4423e-07
1
1
1
1
1
1
1
1
3.05644e-07
1
2.82778e-07
1
2.61292e-07
1
3.70304e-07
1
1
5.83424e-07
1
5.76058e-07
1
1
1
1
1
1
6.32496e-07
1
3.54297e-07
1
2.75735e-07
1
2.58686e-07
1
2.82128e-07
1
2.30709e-07
1
2.13592e-07
1
1
1
1
1
1
1
1
1
2.94068e-07
2.74127e-07
1
2.83866e-07
1
2.99587e-07
1
3.39269e-07
1
1
1
1
5.30335e-07
1
1
1
1
1
1
7.24797e-07
1
3.53135e-07
1
2.77313e-07
1
2.22262e-07
1
1.95977e-07
1
2.45465e-07
1
2.14113e-07
1
1
1
1
1
1
1
1
2.84754e-07
2.64002e-07
1
1
4.58201e-07
1
2.66987e-07
1
3.14823e-07
1
5.14787e-07
1
1
5.11933e-07
1
1
1
1
9.13867e-07
1
1.05289e-06
1
3.12828e-07
0.954879
2.03558e-07
1
1.99373e-07
1
2.10778e-07
1
2.50244e-07
1
1
1
1
1
1
1
1
1
1
1
1
1
1
3.60685e-07
1
2.20286e-07
1
2.95204e-07
1
4.43846e-07
1
1
4.27645e-07
1
1
0.000113802
1
6.28961e-07
1
6.43249e-07
1
2.23234e-07
1
1.87974e-07
1
2.00507e-07
1
2.5891e-07
1
1
1
1
1
1
1
1
1
1
1
1
4.33497e-06
6.18748e-06
1
1
2.99725e-07
1
2.17228e-07
1
3.27938e-07
1
1
4.54721e-07
1
3.93454e-07
1
1
6.70363e-07
1
5.40618e-07
1
3.83985e-07
1
1.73887e-07
1
1.98584e-07
1
2.23683e-07
2.46918e-06
1
3.56259e-07
1
1
1
1
1
1
1
1
1
7.35532e-07
1
1
2.54319e-07
1
1
2.51489e-07
1
2.25519e-07
1
1
2.88366e-07
1
3.93821e-07
1
0.000259693
1
1
5.97932e-07
1
4.27685e-07
1
2.38185e-07
1
1.71193e-07
1
2.43611e-07
1
1
1
1.96264e-07
1
1
1
1
1
1
1
1
1
1
1
2.0693e-07
1
1.51195e-07
5.22206e-07
1
2.31866e-07
1
3.15926e-07
1
1
2.51431e-07
1
4.31468e-07
1
0.000469968
0.000167478
1
5.5679e-07
1
3.33756e-07
1
1.9952e-07
1
2.09982e-07
1
3.40722e-07
1
1
2.23225e-07
1
2.17525e-07
1
1
1
1
1
1
1
2.7942e-07
2.20739e-07
1
1.87524e-07
1
1
2.20491e-07
1
3.18103e-07
1
6.0363e-07
1
1
2.75434e-07
1
4.33948e-07
1
1
4.6413e-06
1
6.19008e-07
1
2.7971e-07
1
2.52376e-07
1
4.47954e-07
1
1
2.12835e-07
1
1
1
1
1
3.34337e-07
1
1
1
1
2.83974e-07
2.75033e-07
1
3.95061e-07
1
1.62024e-07
1
2.48843e-07
1
3.68108e-07
1
5.54926e-06
9.38389e-07
1
2.68558e-07
1
4.14506e-07
1
4.93094e-06
3.58051e-06
1
0.993077
1
4.59765e-07
1
1
1.12947e-06
1
5.39278e-07
1
6.5057e-07
1
1
1
1
2.79403e-07
1
1
1
1
4.21132e-07
2.48644e-07
1.94384e-07
1
1.15175e-07
1
1.62385e-07
1
2.48884e-07
1
3.97423e-07
1
1
4.80367e-07
1
3.35034e-07
1
4.65192e-07
1
3.89148e-07
1
7.39171e-07
1
0.874959
1
2.35383e-07
1
2.48444e-07
1
1
1
1
1
1
1
2.36574e-07
3.3481e-07
1
1
1
1
2.08422e-07
1
1.32426e-07
1
1.20443e-07
1
1.68641e-07
1
2.71034e-07
1
1.56741e-06
1
3.73453e-06
5.38804e-07
1
3.79701e-07
1
4.19191e-07
1
3.31983e-07
1
2.94546e-07
1
2.0672e-07
1
1.70911e-07
1
1.96665e-06
2.42344e-07
1
1
1
1
1
2.21885e-07
2.27152e-07
1
1
1
1
1
1.47137e-07
1
1.14404e-07
1
1.42262e-07
1
2.04075e-07
1
2.56772e-07
1
4.15947e-07
1
7.89282e-07
6.49236e-07
1
4.04512e-07
1
3.73766e-07
1
2.72354e-07
1
2.35263e-07
1
1.7792e-07
1
1.6669e-07
1
2.80421e-06
1
1
1
1
2.99693e-07
1.92758e-07
1.85749e-07
1
1
1
1
2.77963e-07
1
1.34548e-07
0.856628
1.35815e-07
1
1.65471e-07
1
2.39857e-07
1
3.38136e-07
0.940004
4.09048e-07
1
1
5.71626e-07
1
4.16948e-07
1
3.16446e-07
1
2.42633e-07
1
1.97342e-07
1
1.54096e-07
1
1.69101e-07
1
1
1
1
1
2.38906e-07
1.72786e-07
1.68088e-07
2.71887e-07
1
1
1
1
1.74224e-07
1
1.36553e-07
0.90687
1.65685e-07
1
2.19432e-07
1
2.87033e-07
1
5.17015e-07
1
1
4.45596e-07
1
5.53529e-07
1
3.98298e-07
1
3.27315e-07
1
2.31259e-07
1
1.79251e-07
1
1.91786e-07
1
4.66305e-07
1
1
1
2.6928e-07
2.20416e-07
1.50601e-07
1.53916e-07
2.07192e-07
1
1
1
1
1
1.3376e-07
1
1.89122e-07
1
1.97089e-07
1
2.75982e-07
1
5.69409e-07
0.931427
1
4.06705e-07
1
3.90358e-07
1
6.13994e-07
1
3.5346e-07
1
3.41696e-07
1
2.29083e-07
1
1.7831e-07
1
2.27183e-07
1
1
1
1
1.56376e-07
1.94745e-07
1.20677e-07
1.38155e-07
1.83903e-07
1
1
1
1
3.91264e-07
1
1.91965e-07
1
1.95657e-07
0.689359
2.97809e-07
1
5.56296e-07
1
0.971734
3.82175e-07
1
3.0088e-07
1
5.06967e-07
1
6.13918e-07
1
3.25436e-07
1
3.26051e-07
1
2.13444e-07
1
1.69682e-07
1
1
1
1
1
1.64905e-07
1.75072e-07
1.07555e-07
9.20861e-08
1.74994e-07
2.36874e-07
1
1
1
1
2.0262e-07
1
1.7305e-07
4.68623e-06
3.09045e-07
7.27178e-07
0.961155
0.776911
0.970052
4.1854e-07
1
2.71156e-07
1
4.1243e-07
1
7.24144e-07
1
6.50832e-07
1
3.30733e-07
1
3.22231e-07
1
2.30657e-07
1
1
1
1
1
2.09654e-07
1.2768e-07
1.63323e-07
9.71698e-08
9.03852e-08
1.00813e-07
2.37875e-07
1
1
1
1
1
1.5259e-07
1.40516e-06
2.92161e-07
6.11987e-07
7.01318e-07
3.71867e-07
1
4.09074e-07
1
2.85072e-07
1
4.01968e-07
0.847304
0.000151556
0.883374
7.4485e-07
1
1
1
2.49557e-07
1
2.62216e-07
1
2.77418e-07
1
1
1
1
1.61339e-07
1.26373e-07
1.30202e-07
8.50408e-08
8.28456e-08
8.56476e-08
1.54798e-07
2.93841e-07
1
1
1
1
3.49143e-07
5.15637e-07
9.32382e-07
1.13021e-06
2.92127e-07
1
3.57157e-07
1
3.06979e-07
1
0.00389898
1
1
5.67055e-07
0.000277634
0.915305
1
5.22818e-07
1
1
2.08609e-07
1
1.89314e-07
1
1
1
1
2.39997e-07
1.3806e-07
9.74792e-08
1.07152e-07
7.89753e-08
7.5808e-08
8.18485e-08
9.78504e-08
2.24034e-07
1
1
1
1
1.44897e-06
2.94428e-06
2.70341e-06
2.45611e-07
1
2.59221e-07
1
3.31741e-07
1
0.475847
4.97635e-07
0.756706
3.86579e-07
1
8.2049e-07
1
5.23304e-07
1
2.68601e-07
1
1
1.78428e-07
1
1
1
1
1
1.84658e-07
1.04849e-07
8.88957e-08
9.80784e-08
8.45453e-08
7.43211e-08
7.10143e-08
8.14892e-08
1.29745e-07
3.02622e-07
1
1
1
1
5.0509e-07
2.43672e-06
1
2.05019e-07
4.48999e-06
2.62929e-07
1
1
3.68156e-07
0.764362
2.5962e-07
0.667395
5.70082e-07
1
6.81409e-07
1
3.15846e-07
1
1.99241e-07
1
1.71941e-07
1
1
1
1
2.54633e-07
1.27343e-07
8.78723e-08
7.43845e-08
8.3051e-08
8.19078e-08
7.73556e-08
7.30818e-08
7.21837e-08
8.7662e-08
1.89432e-07
1
1
1
1
4.2853e-07
1
1.60049e-07
2.96747e-06
2.07638e-07
7.75721e-07
1
3.48348e-07
1
2.67096e-07
0.000135502
3.45602e-07
0.845848
7.17834e-07
1
2.86451e-07
1
5.71314e-07
4.02053e-06
1.53719e-07
1
1
1
1
1
1.66324e-07
8.51742e-08
7.40115e-08
7.8757e-08
8.63011e-08
6.64666e-08
6.62241e-08
6.64338e-08
6.79741e-08
7.15151e-08
1.13833e-07
2.57527e-07
1
1
1
1
1.32177e-07
2.15126e-06
6.16717e-07
1.14089e-06
1
3.67308e-07
1
5.23089e-07
0.90509
2.96522e-07
0.725518
5.61335e-07
1
0.000205462
1
1.91832e-07
1.14802e-06
1.70176e-06
1.59471e-07
1
1
1
1
2.13591e-07
1.06829e-07
7.31597e-08
7.24781e-08
7.54339e-08
7.87492e-08
6.12337e-08
6.12337e-08
6.12337e-08
6.16148e-08
6.54895e-08
7.5882e-08
1.6114e-07
3.64801e-07
1
1
1
2.84841e-07
2.30217e-06
2.46936e-07
1
1.84397e-07
1.23083e-06
8.86987e-07
1
5.17073e-07
0.643244
5.07129e-07
1
1
1
1.93517e-07
3.06412e-07
1.72239e-07
1.45485e-07
1
1
1
1
2.73643e-07
1.36618e-07
7.2735e-08
6.67886e-08
6.47542e-08
6.33432e-08
6.30412e-08
6.12337e-08
6.12337e-08
6.12337e-08
6.12337e-08
6.12337e-08
6.58871e-08
9.47147e-08
2.18969e-07
1
1
1
1
1.06794e-07
1
2.7055e-07
1.07407e-06
8.13767e-07
5.26398e-07
0.952943
1
9.06524e-07
1
1
2.57395e-07
1.74343e-07
1
1.39472e-07
3.51379e-07
1.6829e-07
1
1
1
1
1.77302e-07
8.11997e-08
6.4333e-08
6.12337e-08
6.12337e-08
6.12337e-08
6.12337e-08
6.12337e-08
6.12337e-08
6.12337e-08
6.12337e-08
6.12337e-08
6.12337e-08
7.05469e-08
1.27239e-07
2.77093e-07
1
1
1
1
1.06032e-07
1.07796e-06
7.46957e-07
5.54889e-07
8.57241e-07
2.04191e-06
1
1
1
2.21293e-07
2.42686e-07
1.57049e-07
1.1473e-07
1
1.1277e-07
1
1
1
1
2.30237e-07
9.93653e-08
6.51572e-08
6.12337e-08
6.12337e-08
6.12337e-08
6.12337e-08
6.12337e-08
6.12337e-08
6.12337e-08
6.12337e-08
6.12337e-08
6.12337e-08
6.12337e-08
6.26125e-08
7.93307e-08
1.6308e-07
1
1
1
1
1.0185e-07
7.36233e-07
2.90551e-07
9.21136e-07
2.74451e-06
1.46094e-07
1
1
1.47539e-07
1
1.22688e-07
1.53789e-07
1.37764e-07
9.40722e-08
1
1
1
1
2.5793e-07
1.36015e-07
6.95187e-08
6.12337e-08
6.12337e-08
6.12337e-08
6.12337e-08
6.12337e-08
6.12337e-08
6.12337e-08
6.12337e-08
6.12337e-08
6.12337e-08
6.12337e-08
6.12337e-08
6.12337e-08
6.75049e-08
9.54692e-08
2.12379e-07
1
1
1
1
8.8627e-08
7.9706e-07
3.37693e-06
1.09343e-07
1
1.55024e-07
2.09426e-07
1
9.76548e-08
1
9.57844e-08
9.69186e-08
2.03679e-07
1
1
1
1.94656e-06
1.66129e-07
7.66167e-08
6.12337e-08
6.12337e-08
6.12337e-08
6.12337e-08
6.12337e-08
6.12337e-08
6.12337e-08
6.12337e-08
6.12337e-08
6.12337e-08
6.12337e-08
6.12337e-08
6.12337e-08
6.12337e-08
6.12337e-08
7.41573e-08
1.15919e-07
2.63098e-07
1
1
1
1
1
9.49832e-08
1
1.05259e-07
2.5863e-07
1.98518e-07
9.93941e-08
1
8.75888e-08
1
9.47373e-08
1
1
1
1
1.96147e-07
9.06787e-08
6.37442e-08
6.12337e-08
6.12337e-08
6.12337e-08
6.12337e-08
6.12337e-08
6.12337e-08
6.12337e-08
6.12337e-08
6.12337e-08
6.12337e-08
6.12337e-08
6.12337e-08
6.12337e-08
6.12337e-08
6.12337e-08
6.23782e-08
8.16452e-08
1.46274e-07
1.87302e-06
1
1
1
8.79583e-08
1
9.2826e-08
3.00123e-07
1.14823e-07
1.19888e-07
2.27967e-07
8.92018e-08
1
8.41153e-08
1
1
1
1
2.36592e-07
1.05727e-07
6.83301e-08
6.12337e-08
6.12337e-08
6.12337e-08
6.12337e-08
6.12337e-08
6.12337e-08
6.12337e-08
6.12337e-08
6.12337e-08
6.12337e-08
6.12337e-08
6.12337e-08
6.12337e-08
6.12337e-08
6.12337e-08
6.12337e-08
6.12337e-08
6.76294e-08
9.91847e-08
1.70295e-07
1
1
1
1
8.10823e-08
1
9.91417e-08
2.22726e-07
1.66407e-07
1.09929e-07
1
7.96233e-08
1
1
1
1
2.46968e-07
1.24508e-07
7.47188e-08
6.12337e-08
6.12337e-08
6.12337e-08
6.12337e-08
6.12337e-08
6.12337e-08
6.12337e-08
6.12337e-08
6.12337e-08
6.12337e-08
6.12337e-08
6.12337e-08
6.12337e-08
6.12337e-08
6.12337e-08
6.12337e-08
6.12337e-08
6.12337e-08
6.12337e-08
7.5495e-08
1.22878e-07
1.92322e-07
1
1
1
1
9.84222e-08
1
1.25159e-07
2.80869e-07
1
1.06796e-07
1
1
1
1
2.48986e-07
1.49793e-07
8.24477e-08
6.37562e-08
6.12337e-08
6.12337e-08
6.12337e-08
6.12337e-08
6.12337e-08
6.12337e-08
6.12337e-08
6.12337e-08
6.12337e-08
6.12337e-08
6.12337e-08
6.12337e-08
6.12337e-08
6.12337e-08
6.12337e-08
6.12337e-08
6.12337e-08
6.12337e-08
6.12337e-08
6.6728e-08
8.21366e-08
1.28256e-07
2.0864e-07
1
1
1
1.0076e-07
0.578963
0.988004
1
2.10425e-07
9.31727e-08
1
1
1
2.63566e-07
1.6057e-07
9.38489e-08
6.95578e-08
6.12337e-08
6.12337e-08
6.12337e-08
6.12337e-08
6.12337e-08
6.12337e-08
6.12337e-08
6.12337e-08
6.12337e-08
6.12337e-08
6.12337e-08
6.12337e-08
6.12337e-08
6.12337e-08
6.12337e-08
6.12337e-08
6.12337e-08
6.12337e-08
6.12337e-08
6.12337e-08
6.12337e-08
7.4883e-08
9.58071e-08
1.42317e-07
2.14381e-07
1
1
1
9.10794e-08
1
1.2225e-07
8.86077e-08
1
1
1
2.43972e-07
1.53663e-07
9.88667e-08
7.76259e-08
6.17773e-08
6.12337e-08
6.12337e-08
6.12337e-08
6.12337e-08
6.12337e-08
6.12337e-08
6.12337e-08
6.12337e-08
6.12337e-08
6.12337e-08
6.12337e-08
6.12337e-08
6.12337e-08
6.12337e-08
6.12337e-08
6.12337e-08
6.12337e-08
6.12337e-08
6.12337e-08
6.12337e-08
6.12337e-08
6.65491e-08
7.42196e-08
9.43601e-08
1.39142e-07
2.07845e-07
1
1
1
1.53712e-07
1
1
1
1
2.22554e-07
1.44445e-07
9.88495e-08
7.75439e-08
6.9205e-08
6.12337e-08
6.12337e-08
6.12337e-08
6.12337e-08
6.12337e-08
6.12337e-08
6.12337e-08
6.12337e-08
6.12337e-08
6.12337e-08
6.12337e-08
6.12337e-08
6.12337e-08
6.12337e-08
6.12337e-08
6.12337e-08
6.12337e-08
6.12337e-08
6.12337e-08
6.12337e-08
6.12337e-08
6.12337e-08
6.12337e-08
7.05965e-08
8.28456e-08
9.21804e-08
1.40766e-07
1.53344e-06
1
1
1
1
1
1
5.71529e-07
1.44199e-07
9.46405e-08
8.28456e-08
7.25098e-08
6.20689e-08
6.12337e-08
6.12337e-08
6.12337e-08
6.12337e-08
6.12337e-08
6.12337e-08
6.12337e-08
6.12337e-08
6.12337e-08
6.12337e-08
6.12337e-08
6.12337e-08
6.12337e-08
6.12337e-08
6.12337e-08
6.12337e-08
6.12337e-08
6.12337e-08
6.12337e-08
6.12337e-08
6.12337e-08
6.12337e-08
6.12337e-08
7.91375e-08
8.28456e-08
9.26012e-08
1.12085e-07
1.51645e-07
1
1
1
1
1
1
1.51645e-07
1.12085e-07
9.50428e-08
8.28456e-08
8.11646e-08
6.12337e-08
6.12337e-08
6.12337e-08
6.12337e-08
6.12337e-08
6.12337e-08
6.12337e-08
6.12337e-08
6.12337e-08
6.12337e-08
6.12337e-08
6.12337e-08
