# vtk DataFile Version 4.1
vtk output
ASCII
DATASET UNSTRUCTURED_GRID

POINTS	7401	float
0	0	0.0	
0	1	0.0	
0	2	0.0	
0	3	0.0	
0	4	0.0	
0	5	0.0	
0	6	0.0	
0	7	0.0	
0	8	0.0	
0	9	0.0	
0	10	0.0	
0	11	0.0	
0	12	0.0	
0	13	0.0	
0	14	0.0	
0	15	0.0	
0	16	0.0	
0	17	0.0	
0	18	0.0	
0	19	0.0	
0	20	0.0	
0	21	0.0	
0	22	0.0	
0	23	0.0	
0	24	0.0	
0	25	0.0	
0	26	0.0	
0	27	0.0	
0	28	0.0	
0	29	0.0	
0	30	0.0	
0	31	0.0	
0	32	0.0	
0	33	0.0	
0	34	0.0	
0	35	0.0	
0	36	0.0	
0	37	0.0	
0	38	0.0	
0	39	0.0	
0	40	0.0	
1	0	0.0	
1	1	0.0	
1	2	0.0	
1	3	0.0	
1	4	0.0	
1	5	0.0	
1	6	0.0	
1	7	0.0	
1	8	0.0	
1	9	0.0	
1	10	0.0	
1	11	0.0	
1	12	0.0	
1	13	0.0	
1	14	0.0	
1	15	0.0	
1	16	0.0	
1	17	0.0	
1	18	0.0	
1	19	0.0	
1	20	0.0	
1	21	0.0	
1	22	0.0	
1	23	0.0	
1	24	0.0	
1	25	0.0	
1	26	0.0	
1	27	0.0	
1	28	0.0	
1	29	0.0	
1	30	0.0	
1	31	0.0	
1	32	0.0	
1	33	0.0	
1	34	0.0	
1	35	0.0	
1	36	0.0	
1	37	0.0	
1	38	0.0	
1	39	0.0	
1	40	0.0	
2	0	0.0	
2	1	0.0	
2	2	0.0	
2	3	0.0	
2	4	0.0	
2	5	0.0	
2	6	0.0	
2	7	0.0	
2	8	0.0	
2	9	0.0	
2	10	0.0	
2	11	0.0	
2	12	0.0	
2	13	0.0	
2	14	0.0	
2	15	0.0	
2	16	0.0	
2	17	0.0	
2	18	0.0	
2	19	0.0	
2	20	0.0	
2	21	0.0	
2	22	0.0	
2	23	0.0	
2	24	0.0	
2	25	0.0	
2	26	0.0	
2	27	0.0	
2	28	0.0	
2	29	0.0	
2	30	0.0	
2	31	0.0	
2	32	0.0	
2	33	0.0	
2	34	0.0	
2	35	0.0	
2	36	0.0	
2	37	0.0	
2	38	0.0	
2	39	0.0	
2	40	0.0	
3	0	0.0	
3	1	0.0	
3	2	0.0	
3	3	0.0	
3	4	0.0	
3	5	0.0	
3	6	0.0	
3	7	0.0	
3	8	0.0	
3	9	0.0	
3	10	0.0	
3	11	0.0	
3	12	0.0	
3	13	0.0	
3	14	0.0	
3	15	0.0	
3	16	0.0	
3	17	0.0	
3	18	0.0	
3	19	0.0	
3	20	0.0	
3	21	0.0	
3	22	0.0	
3	23	0.0	
3	24	0.0	
3	25	0.0	
3	26	0.0	
3	27	0.0	
3	28	0.0	
3	29	0.0	
3	30	0.0	
3	31	0.0	
3	32	0.0	
3	33	0.0	
3	34	0.0	
3	35	0.0	
3	36	0.0	
3	37	0.0	
3	38	0.0	
3	39	0.0	
3	40	0.0	
4	0	0.0	
4	1	0.0	
4	2	0.0	
4	3	0.0	
4	4	0.0	
4	5	0.0	
4	6	0.0	
4	7	0.0	
4	8	0.0	
4	9	0.0	
4	10	0.0	
4	11	0.0	
4	12	0.0	
4	13	0.0	
4	14	0.0	
4	15	0.0	
4	16	0.0	
4	17	0.0	
4	18	0.0	
4	19	0.0	
4	20	0.0	
4	21	0.0	
4	22	0.0	
4	23	0.0	
4	24	0.0	
4	25	0.0	
4	26	0.0	
4	27	0.0	
4	28	0.0	
4	29	0.0	
4	30	0.0	
4	31	0.0	
4	32	0.0	
4	33	0.0	
4	34	0.0	
4	35	0.0	
4	36	0.0	
4	37	0.0	
4	38	0.0	
4	39	0.0	
4	40	0.0	
5	0	0.0	
5	1	0.0	
5	2	0.0	
5	3	0.0	
5	4	0.0	
5	5	0.0	
5	6	0.0	
5	7	0.0	
5	8	0.0	
5	9	0.0	
5	10	0.0	
5	11	0.0	
5	12	0.0	
5	13	0.0	
5	14	0.0	
5	15	0.0	
5	16	0.0	
5	17	0.0	
5	18	0.0	
5	19	0.0	
5	20	0.0	
5	21	0.0	
5	22	0.0	
5	23	0.0	
5	24	0.0	
5	25	0.0	
5	26	0.0	
5	27	0.0	
5	28	0.0	
5	29	0.0	
5	30	0.0	
5	31	0.0	
5	32	0.0	
5	33	0.0	
5	34	0.0	
5	35	0.0	
5	36	0.0	
5	37	0.0	
5	38	0.0	
5	39	0.0	
5	40	0.0	
6	0	0.0	
6	1	0.0	
6	2	0.0	
6	3	0.0	
6	4	0.0	
6	5	0.0	
6	6	0.0	
6	7	0.0	
6	8	0.0	
6	9	0.0	
6	10	0.0	
6	11	0.0	
6	12	0.0	
6	13	0.0	
6	14	0.0	
6	15	0.0	
6	16	0.0	
6	17	0.0	
6	18	0.0	
6	19	0.0	
6	20	0.0	
6	21	0.0	
6	22	0.0	
6	23	0.0	
6	24	0.0	
6	25	0.0	
6	26	0.0	
6	27	0.0	
6	28	0.0	
6	29	0.0	
6	30	0.0	
6	31	0.0	
6	32	0.0	
6	33	0.0	
6	34	0.0	
6	35	0.0	
6	36	0.0	
6	37	0.0	
6	38	0.0	
6	39	0.0	
6	40	0.0	
7	0	0.0	
7	1	0.0	
7	2	0.0	
7	3	0.0	
7	4	0.0	
7	5	0.0	
7	6	0.0	
7	7	0.0	
7	8	0.0	
7	9	0.0	
7	10	0.0	
7	11	0.0	
7	12	0.0	
7	13	0.0	
7	14	0.0	
7	15	0.0	
7	16	0.0	
7	17	0.0	
7	18	0.0	
7	19	0.0	
7	20	0.0	
7	21	0.0	
7	22	0.0	
7	23	0.0	
7	24	0.0	
7	25	0.0	
7	26	0.0	
7	27	0.0	
7	28	0.0	
7	29	0.0	
7	30	0.0	
7	31	0.0	
7	32	0.0	
7	33	0.0	
7	34	0.0	
7	35	0.0	
7	36	0.0	
7	37	0.0	
7	38	0.0	
7	39	0.0	
7	40	0.0	
8	0	0.0	
8	1	0.0	
8	2	0.0	
8	3	0.0	
8	4	0.0	
8	5	0.0	
8	6	0.0	
8	7	0.0	
8	8	0.0	
8	9	0.0	
8	10	0.0	
8	11	0.0	
8	12	0.0	
8	13	0.0	
8	14	0.0	
8	15	0.0	
8	16	0.0	
8	17	0.0	
8	18	0.0	
8	19	0.0	
8	20	0.0	
8	21	0.0	
8	22	0.0	
8	23	0.0	
8	24	0.0	
8	25	0.0	
8	26	0.0	
8	27	0.0	
8	28	0.0	
8	29	0.0	
8	30	0.0	
8	31	0.0	
8	32	0.0	
8	33	0.0	
8	34	0.0	
8	35	0.0	
8	36	0.0	
8	37	0.0	
8	38	0.0	
8	39	0.0	
8	40	0.0	
9	0	0.0	
9	1	0.0	
9	2	0.0	
9	3	0.0	
9	4	0.0	
9	5	0.0	
9	6	0.0	
9	7	0.0	
9	8	0.0	
9	9	0.0	
9	10	0.0	
9	11	0.0	
9	12	0.0	
9	13	0.0	
9	14	0.0	
9	15	0.0	
9	16	0.0	
9	17	0.0	
9	18	0.0	
9	19	0.0	
9	20	0.0	
9	21	0.0	
9	22	0.0	
9	23	0.0	
9	24	0.0	
9	25	0.0	
9	26	0.0	
9	27	0.0	
9	28	0.0	
9	29	0.0	
9	30	0.0	
9	31	0.0	
9	32	0.0	
9	33	0.0	
9	34	0.0	
9	35	0.0	
9	36	0.0	
9	37	0.0	
9	38	0.0	
9	39	0.0	
9	40	0.0	
10	0	0.0	
10	1	0.0	
10	2	0.0	
10	3	0.0	
10	4	0.0	
10	5	0.0	
10	6	0.0	
10	7	0.0	
10	8	0.0	
10	9	0.0	
10	10	0.0	
10	11	0.0	
10	12	0.0	
10	13	0.0	
10	14	0.0	
10	15	0.0	
10	16	0.0	
10	17	0.0	
10	18	0.0	
10	19	0.0	
10	20	0.0	
10	21	0.0	
10	22	0.0	
10	23	0.0	
10	24	0.0	
10	25	0.0	
10	26	0.0	
10	27	0.0	
10	28	0.0	
10	29	0.0	
10	30	0.0	
10	31	0.0	
10	32	0.0	
10	33	0.0	
10	34	0.0	
10	35	0.0	
10	36	0.0	
10	37	0.0	
10	38	0.0	
10	39	0.0	
10	40	0.0	
11	0	0.0	
11	1	0.0	
11	2	0.0	
11	3	0.0	
11	4	0.0	
11	5	0.0	
11	6	0.0	
11	7	0.0	
11	8	0.0	
11	9	0.0	
11	10	0.0	
11	11	0.0	
11	12	0.0	
11	13	0.0	
11	14	0.0	
11	15	0.0	
11	16	0.0	
11	17	0.0	
11	18	0.0	
11	19	0.0	
11	20	0.0	
11	21	0.0	
11	22	0.0	
11	23	0.0	
11	24	0.0	
11	25	0.0	
11	26	0.0	
11	27	0.0	
11	28	0.0	
11	29	0.0	
11	30	0.0	
11	31	0.0	
11	32	0.0	
11	33	0.0	
11	34	0.0	
11	35	0.0	
11	36	0.0	
11	37	0.0	
11	38	0.0	
11	39	0.0	
11	40	0.0	
12	0	0.0	
12	1	0.0	
12	2	0.0	
12	3	0.0	
12	4	0.0	
12	5	0.0	
12	6	0.0	
12	7	0.0	
12	8	0.0	
12	9	0.0	
12	10	0.0	
12	11	0.0	
12	12	0.0	
12	13	0.0	
12	14	0.0	
12	15	0.0	
12	16	0.0	
12	17	0.0	
12	18	0.0	
12	19	0.0	
12	20	0.0	
12	21	0.0	
12	22	0.0	
12	23	0.0	
12	24	0.0	
12	25	0.0	
12	26	0.0	
12	27	0.0	
12	28	0.0	
12	29	0.0	
12	30	0.0	
12	31	0.0	
12	32	0.0	
12	33	0.0	
12	34	0.0	
12	35	0.0	
12	36	0.0	
12	37	0.0	
12	38	0.0	
12	39	0.0	
12	40	0.0	
13	0	0.0	
13	1	0.0	
13	2	0.0	
13	3	0.0	
13	4	0.0	
13	5	0.0	
13	6	0.0	
13	7	0.0	
13	8	0.0	
13	9	0.0	
13	10	0.0	
13	11	0.0	
13	12	0.0	
13	13	0.0	
13	14	0.0	
13	15	0.0	
13	16	0.0	
13	17	0.0	
13	18	0.0	
13	19	0.0	
13	20	0.0	
13	21	0.0	
13	22	0.0	
13	23	0.0	
13	24	0.0	
13	25	0.0	
13	26	0.0	
13	27	0.0	
13	28	0.0	
13	29	0.0	
13	30	0.0	
13	31	0.0	
13	32	0.0	
13	33	0.0	
13	34	0.0	
13	35	0.0	
13	36	0.0	
13	37	0.0	
13	38	0.0	
13	39	0.0	
13	40	0.0	
14	0	0.0	
14	1	0.0	
14	2	0.0	
14	3	0.0	
14	4	0.0	
14	5	0.0	
14	6	0.0	
14	7	0.0	
14	8	0.0	
14	9	0.0	
14	10	0.0	
14	11	0.0	
14	12	0.0	
14	13	0.0	
14	14	0.0	
14	15	0.0	
14	16	0.0	
14	17	0.0	
14	18	0.0	
14	19	0.0	
14	20	0.0	
14	21	0.0	
14	22	0.0	
14	23	0.0	
14	24	0.0	
14	25	0.0	
14	26	0.0	
14	27	0.0	
14	28	0.0	
14	29	0.0	
14	30	0.0	
14	31	0.0	
14	32	0.0	
14	33	0.0	
14	34	0.0	
14	35	0.0	
14	36	0.0	
14	37	0.0	
14	38	0.0	
14	39	0.0	
14	40	0.0	
15	0	0.0	
15	1	0.0	
15	2	0.0	
15	3	0.0	
15	4	0.0	
15	5	0.0	
15	6	0.0	
15	7	0.0	
15	8	0.0	
15	9	0.0	
15	10	0.0	
15	11	0.0	
15	12	0.0	
15	13	0.0	
15	14	0.0	
15	15	0.0	
15	16	0.0	
15	17	0.0	
15	18	0.0	
15	19	0.0	
15	20	0.0	
15	21	0.0	
15	22	0.0	
15	23	0.0	
15	24	0.0	
15	25	0.0	
15	26	0.0	
15	27	0.0	
15	28	0.0	
15	29	0.0	
15	30	0.0	
15	31	0.0	
15	32	0.0	
15	33	0.0	
15	34	0.0	
15	35	0.0	
15	36	0.0	
15	37	0.0	
15	38	0.0	
15	39	0.0	
15	40	0.0	
16	0	0.0	
16	1	0.0	
16	2	0.0	
16	3	0.0	
16	4	0.0	
16	5	0.0	
16	6	0.0	
16	7	0.0	
16	8	0.0	
16	9	0.0	
16	10	0.0	
16	11	0.0	
16	12	0.0	
16	13	0.0	
16	14	0.0	
16	15	0.0	
16	16	0.0	
16	17	0.0	
16	18	0.0	
16	19	0.0	
16	20	0.0	
16	21	0.0	
16	22	0.0	
16	23	0.0	
16	24	0.0	
16	25	0.0	
16	26	0.0	
16	27	0.0	
16	28	0.0	
16	29	0.0	
16	30	0.0	
16	31	0.0	
16	32	0.0	
16	33	0.0	
16	34	0.0	
16	35	0.0	
16	36	0.0	
16	37	0.0	
16	38	0.0	
16	39	0.0	
16	40	0.0	
17	0	0.0	
17	1	0.0	
17	2	0.0	
17	3	0.0	
17	4	0.0	
17	5	0.0	
17	6	0.0	
17	7	0.0	
17	8	0.0	
17	9	0.0	
17	10	0.0	
17	11	0.0	
17	12	0.0	
17	13	0.0	
17	14	0.0	
17	15	0.0	
17	16	0.0	
17	17	0.0	
17	18	0.0	
17	19	0.0	
17	20	0.0	
17	21	0.0	
17	22	0.0	
17	23	0.0	
17	24	0.0	
17	25	0.0	
17	26	0.0	
17	27	0.0	
17	28	0.0	
17	29	0.0	
17	30	0.0	
17	31	0.0	
17	32	0.0	
17	33	0.0	
17	34	0.0	
17	35	0.0	
17	36	0.0	
17	37	0.0	
17	38	0.0	
17	39	0.0	
17	40	0.0	
18	0	0.0	
18	1	0.0	
18	2	0.0	
18	3	0.0	
18	4	0.0	
18	5	0.0	
18	6	0.0	
18	7	0.0	
18	8	0.0	
18	9	0.0	
18	10	0.0	
18	11	0.0	
18	12	0.0	
18	13	0.0	
18	14	0.0	
18	15	0.0	
18	16	0.0	
18	17	0.0	
18	18	0.0	
18	19	0.0	
18	20	0.0	
18	21	0.0	
18	22	0.0	
18	23	0.0	
18	24	0.0	
18	25	0.0	
18	26	0.0	
18	27	0.0	
18	28	0.0	
18	29	0.0	
18	30	0.0	
18	31	0.0	
18	32	0.0	
18	33	0.0	
18	34	0.0	
18	35	0.0	
18	36	0.0	
18	37	0.0	
18	38	0.0	
18	39	0.0	
18	40	0.0	
19	0	0.0	
19	1	0.0	
19	2	0.0	
19	3	0.0	
19	4	0.0	
19	5	0.0	
19	6	0.0	
19	7	0.0	
19	8	0.0	
19	9	0.0	
19	10	0.0	
19	11	0.0	
19	12	0.0	
19	13	0.0	
19	14	0.0	
19	15	0.0	
19	16	0.0	
19	17	0.0	
19	18	0.0	
19	19	0.0	
19	20	0.0	
19	21	0.0	
19	22	0.0	
19	23	0.0	
19	24	0.0	
19	25	0.0	
19	26	0.0	
19	27	0.0	
19	28	0.0	
19	29	0.0	
19	30	0.0	
19	31	0.0	
19	32	0.0	
19	33	0.0	
19	34	0.0	
19	35	0.0	
19	36	0.0	
19	37	0.0	
19	38	0.0	
19	39	0.0	
19	40	0.0	
20	0	0.0	
20	1	0.0	
20	2	0.0	
20	3	0.0	
20	4	0.0	
20	5	0.0	
20	6	0.0	
20	7	0.0	
20	8	0.0	
20	9	0.0	
20	10	0.0	
20	11	0.0	
20	12	0.0	
20	13	0.0	
20	14	0.0	
20	15	0.0	
20	16	0.0	
20	17	0.0	
20	18	0.0	
20	19	0.0	
20	20	0.0	
20	21	0.0	
20	22	0.0	
20	23	0.0	
20	24	0.0	
20	25	0.0	
20	26	0.0	
20	27	0.0	
20	28	0.0	
20	29	0.0	
20	30	0.0	
20	31	0.0	
20	32	0.0	
20	33	0.0	
20	34	0.0	
20	35	0.0	
20	36	0.0	
20	37	0.0	
20	38	0.0	
20	39	0.0	
20	40	0.0	
21	0	0.0	
21	1	0.0	
21	2	0.0	
21	3	0.0	
21	4	0.0	
21	5	0.0	
21	6	0.0	
21	7	0.0	
21	8	0.0	
21	9	0.0	
21	10	0.0	
21	11	0.0	
21	12	0.0	
21	13	0.0	
21	14	0.0	
21	15	0.0	
21	16	0.0	
21	17	0.0	
21	18	0.0	
21	19	0.0	
21	20	0.0	
21	21	0.0	
21	22	0.0	
21	23	0.0	
21	24	0.0	
21	25	0.0	
21	26	0.0	
21	27	0.0	
21	28	0.0	
21	29	0.0	
21	30	0.0	
21	31	0.0	
21	32	0.0	
21	33	0.0	
21	34	0.0	
21	35	0.0	
21	36	0.0	
21	37	0.0	
21	38	0.0	
21	39	0.0	
21	40	0.0	
22	0	0.0	
22	1	0.0	
22	2	0.0	
22	3	0.0	
22	4	0.0	
22	5	0.0	
22	6	0.0	
22	7	0.0	
22	8	0.0	
22	9	0.0	
22	10	0.0	
22	11	0.0	
22	12	0.0	
22	13	0.0	
22	14	0.0	
22	15	0.0	
22	16	0.0	
22	17	0.0	
22	18	0.0	
22	19	0.0	
22	20	0.0	
22	21	0.0	
22	22	0.0	
22	23	0.0	
22	24	0.0	
22	25	0.0	
22	26	0.0	
22	27	0.0	
22	28	0.0	
22	29	0.0	
22	30	0.0	
22	31	0.0	
22	32	0.0	
22	33	0.0	
22	34	0.0	
22	35	0.0	
22	36	0.0	
22	37	0.0	
22	38	0.0	
22	39	0.0	
22	40	0.0	
23	0	0.0	
23	1	0.0	
23	2	0.0	
23	3	0.0	
23	4	0.0	
23	5	0.0	
23	6	0.0	
23	7	0.0	
23	8	0.0	
23	9	0.0	
23	10	0.0	
23	11	0.0	
23	12	0.0	
23	13	0.0	
23	14	0.0	
23	15	0.0	
23	16	0.0	
[...]
CELL_DATA	2400
SCALARS Rho0 float
LOOKUP_TABLE default
1
1
1
1
1
1e-10
1e-10
1e-10
1e-10
1e-10
1e-10
1e-10
1e-10
1e-10
1e-10
1e-10
1e-10
1e-10
1e-10
1e-10
1e-10
1e-10
1e-10
1e-10
1e-10
1e-10
1e-10
1e-10
1e-10
1e-10
1e-10
1e-10
1e-10
1e-10
1e-10
1
1
1
1
1
1
1
1
1
1
1e-10
1e-10
1e-10
1e-10
1e-10
1e-10
1e-10
1e-10
1e-10
1e-10
1e-10
1e-10
1e-10
1e-10
1e-10
1e-10
1e-10
1e-10
1e-10
1e-10
1e-10
1e-10
1e-10
1e-10
1e-10
1e-10
1e-10
1e-10
1e-10
1e-10
1
1
1
1
1
1
1
1
1
1
1
1e-10
1e-10
1e-10
1e-10
1e-10
1e-10
1e-10
1e-10
1e-10
1e-10
1e-10
1e-10
1e-10
1e-10
1e-10
1e-10
1e-10
1e-10
1e-10
1e-10
1e-10
1e-10
1e-10
1e-10
1e-10
1e-10
1e-10
1e-10
1
1
1
1
1
1
1
1
1
1
1
1
1e-10
1e-10
1e-10
1e-10
1e-10
1e-10
1e-10
1e-10
1e-10
1e-10
1e-10
1e-10
1e-10
1e-10
1e-10
1e-10
1e-10
1e-10
1e-10
1e-10
1e-10
1e-10
1e-10
1e-10
1e-10
1e-10
1e-10
1e-10
1
1
1
1
1
1
1
1
1
1
1
1
1
1e-10
1e-10
1e-10
1e-10
1e-10
1e-10
1e-10
1e-10
1e-10
1e-10
1e-10
1e-10
1e-10
1e-10
1e-10
1e-10
1e-10
1e-10
1e-10
1e-10
1e-10
1e-10
1e-10
1e-10
1e-10
1e-10
1
1
1
1
1
1
1
1
1
1
1
1
1
1
1
1e-10
1e-10
1e-10
1e-10
1e-10
1e-10
1e-10
1e-10
1e-10
1e-10
1e-10
1e-10
1e-10
1e-10
1e-10
1e-10
1e-10
1e-10
1e-10
1e-10
1e-10
1e-10
1e-10
1e-10
1
1
1
1
1
1
1
1
1
1
1
1
1
1
1
1
1
1e-10
1e-10
1e-10
1e-10
1e-10
1e-10
1e-10
1e-10
1e-10
1e-10
1e-10
1e-10
1e-10
1e-10
1e-10
1e-10
1e-10
1e-10
1e-10
1e-10
1e-10
1e-10
1
1
1
1
1
1
1
1
1
1
1
1
1
1
1
1
1
1
1
1e-10
1e-10
1e-10
1e-10
1e-10
1e-10
1e-10
1e-10
1e-10
1e-10
1e-10
1e-10
1e-10
1e-10
1e-10
1e-10
1e-10
1e-10
1e-10
1e-10
1
1
1
1
1
1
1
1
1
1
1
1
1
1
1
1
1
1
1
1
1
1e-10
1e-10
1e-10
1e-10
1e-10
1e-10
1e-10
1e-10
1e-10
1e-10
1e-10
1e-10
1e-10
1e-10
1e-10
1e-10
1e-10
1e-10
1
1
1
1
1
1
1
1
1
1
1
1
1
1
1
1e-10
1
1
1
1
1
1
1
1e-10
1e-10
1e-10
1e-10
1e-10
1e-10
1e-10
1e-10
1e-10
1e-10
1e-10
1e-10
1e-10
1e-10
1e-10
1e-10
1
1
1
1
1
1
1
1e-10
1
1
1
1
1
1
1
1
1e-10
1e-10
1
1
1
1
1
1
1e-10
1e-10
1e-10
1e-10
1e-10
1e-10
1e-10
1e-10
1e-10
1e-10
1e-10
1e-10
1e-10
1e-10
1e-10
1e-10
1
1
1
1
1
1
1e-10
1e-10
1
1
1
1
1
1
1
1
1e-10
1e-10
1
1
1
1
1
1
1
1e-10
1e-10
1e-10
1e-10
1e-10
1e-10
1e-10
1e-10
1e-10
1e-10
1e-10
1e-10
1e-10
1e-10
1
1
1
1
1
1
1
1e-10
1e-10
1
1
1
1
1
1
1
1
1e-10
1e-10
1e-10
1
1
1
1
1
1
1
1e-10
1e-10
1e-10
1e-10
1e-10
1e-10
1e-10
1e-10
1e-10
1e-10
1e-10
1e-10
1
1
1
1
1
1
1
1e-10
1e-10
1e-10
1
1
1
1
1
1
1
1
1e-10
1e-10
1e-10
1e-10
1
1
1
1
1
1
1e-10
1e-10
1e-10
1e-10
1e-10
1e-10
1e-10
1e-10
1e-10
1e-10
1e-10
1e-10
1
1
1
1
1
1
1e-10
1e-10
1e-10
1e-10
1
1
1
1
1
1
1
1
1e-10
1e-10
1e-10
1e-10
1
1
1
1
1
1
1
1e-10
1e-10
1e-10
1e-10
1e-10
1e-10
1e-10
1e-10
1e-10
1e-10
1
1
1
1
1
1
1
1e-10
1e-10
1e-10
1e-10
1
1
1
1
1
1
1
1
1e-10
1e-10
1e-10
1e-10
1e-10
1
1
1
1
1
1
1
1e-10
1e-10
1e-10
1e-10
1e-10
1e-10
1e-10
1e-10
1
1
1
1
1
1
1
1e-10
1e-10
1e-10
1e-10
1e-10
1
1
1
1
1
1
1
1
1e-10
1e-10
1e-10
1e-10
1e-10
1
1
1
1
1
1
1
1
1e-10
1e-10
1e-10
1e-10
1e-10
1e-10
1
1
1
1
1
1
1
1
1e-10
1e-10
1e-10
1e-10
1e-10
1
1
1
1
1
1
1
1
1e-10
1e-10
1e-10
1e-10
1e-10
1e-10
1
1
1
1
1
1
1
1
1e-10
1e-10
1e-10
1e-10
1
1
1
1
1
1
1
1
1e-10
1e-10
1e-10
1e-10
1e-10
1e-10
1
1
1
1
1
1
1
1
1e-10
1e-10
1e-10
1e-10
1e-10
1e-10
1e-10
1
1
1
1
1
1
1
1
1e-10
1e-10
1
1
1
1
1
1
1
1
1e-10
1e-10
1e-10
1e-10
1e-10
1e-10
1e-10
1
1
1
1
1
1
1
1
1
1e-10
1e-10
1e-10
1e-10
1e-10
1e-10
1
1
1
1
1
1
1
1
1
1
1
1
1
1
1
1
1
1
1e-10
1e-10
1e-10
1e-10
1e-10
1e-10
1
1
1
1
1
1
1
1
1
1
1e-10
1e-10
1e-10
1e-10
1e-10
1e-10
1
1
1
1
1
1
1
1
1
1
1
1
1
1
1
1
1
1
1e-10
1e-10
1e-10
1e-10
1e-10
1e-10
1
1
1
1
1
1
1
1
1
1
1e-10
1e-10
1e-10
1e-10
1e-10
1e-10
1e-10
1
1
1
1
1
1
1
1
1
1
1
1
1
1
1
1
1e-10
1e-10
1e-10
1e-10
1e-10
1e-10
1e-10
1
1
1
1
1
1
1
1
1
1
1e-10
1e-10
1e-10
1e-10
1e-10
1e-10
1e-10
1
1
1
1
1
1
1
1
1
1
1
1
1
1
1
1
1e-10
1e-10
1e-10
1e-10
1e-10
1e-10
1e-10
1
1
1
1
1
1
1
1
1
1
1e-10
1e-10
1e-10
1e-10
1e-10
1e-10
1e-10
1
1
1
1
1
1
1
1
1
1
1
1
1
1
1
1
1e-10
1e-10
1e-10
1e-10
1e-10
1e-10
1e-10
1
1
1
1
1
1
1
1
1
1
1e-10
1e-10
1e-10
1e-10
1e-10
1e-10
1e-10
1
1
1
1
1
1
1
1
1
1
1
1
1
1
1
1
1e-10
1e-10
1e-10
1e-10
1e-10
1e-10
1e-10
1
1
1
1
1
1
1
1
1
1
0.531292
1e-10
1e-10
1e-10
1e-10
1e-10
1e-10
1e-10
1
1
1
1
1
1
1
1
1
1
1
1
1
1
1e-10
1e-10
1e-10
1e-10
1e-10
1e-10
1e-10
0.531224
1
1
1
1
1
1
1
1
1
1
1
1e-10
1e-10
1e-10
1e-10
1e-10
1e-10
1e-10
1
1
1
1
1
1
1
1
1
1
1
1
1
1
1e-10
1e-10
1e-10
1e-10
1e-10
1e-10
1e-10
1
1
1
1
1
1
1
1
1
1
1
1
1e-10
1e-10
1e-10
1e-10
1e-10
1e-10
1
1
1
1
1
1
1
1
1
1
1
1
1
1
1
1
1e-10
1e-10
1e-10
1e-10
1e-10
1e-10
1
1
1
1
1
1
1
1
1
1
1
1
1e-10
1e-10
1e-10
1
1
1
1
1
1
1
1
1
1
1
1
1
1
1
1
1
1
1
1
1
1
1e-10
1e-10
1e-10
1
1
1
1
1
1
1
1
1
1
1
1
1
1
1
1
1
1
1
1
1
1
1
1
1
1
1
1
1
1
1
1
1
1
1
1
1
1
1
1
1
1
1
1
1
1
1
1
1
1
1
1
1
1
1
1
1
1
0.71558
0.692837
1
0.431143
0.800341
1
1
1
1
1
1
0.800341
0.431144
1
0.692839
0.715582
1
1
1
1
1
1
1
1
1
1
1
1
1
1
1
1
1
1
1
1
1
1
0.374671
1.14086e-06
1e-10
1e-10
1
0.963458
0.958682
1
1
1
1
1
1
0.958682
0.963458
1
1e-10
1e-10
1.14088e-06
0.374671
1
1
1
1
1
1
1
1
1
1
1
1
1
1
1
1
1
1
0.77595
1.10546e-06
1e-10
1e-10
1e-10
0.998586
1
1
1
1
1
1e-10
1e-10
1
1
1
1
1
0.998584
1e-10
1e-10
1e-10
1.10546e-06
0.775948
1
1
1
1
1
1
1
1
1
1
1
1
1
1
1
0.924909
1.27875e-06
1e-10
1e-10
1e-10
1
1
1
1
1
1e-10
1e-10
1e-10
1e-10
1e-10
1e-10
1
1
1
1
1
1e-10
1e-10
1e-10
1.27874e-06
0.924907
1
1
1
1
1
1
1
1e-10
1
1
1
1
1
1
1
0.0344366
1e-10
0.566403
1
1
1
1
1
0.561325
0.0101023
1e-10
1e-10
1e-10
1e-10
0.0101023
0.561326
1
1
1
1
1
0.566402
1e-10
0.0344362
1
1
1
1
1
1
1
1e-10
1e-10
1
1
1
1
1
1
1
0.0726873
0.839373
1
1
1
1e-10
3.81225e-09
0.990015
1
0.181082
0.000299096
1e-10
1e-10
0.000299097
0.181083
1
0.990015
3.81214e-09
1e-10
1
1
1
0.839372
0.0726857
1
1
1
1
1
1
1
1e-10
1e-10
1
1
1
1
1
1
1
1
1
1
0.831725
1e-10
1e-10
1e-10
2.75604e-05
0.986033
1
0.00510793
4.28993e-05
4.28993e-05
0.00510796
1
0.986033
2.75601e-05
1e-10
1e-10
1e-10
0.831723
1
1
1
1
1
1
1
1
1
1
1e-10
1e-10
1e-10
1
1
1
1
1
1
1
1
0.654977
1e-10
1e-10
1e-10
1e-10
1e-10
0.00508466
1
1
0.00612055
0.00612057
1
1
0.00508464
1e-10
1e-10
1e-10
1e-10
1e-10
0.654976
1
1
1
1
1
1
1
1
1e-10
1e-10
1e-10
1e-10
1
1
1
1
1
1
1
1e-10
1e-10
1e-10
1e-10
1e-10
1e-10
1e-10
1.80194e-06
0.213759
1
0.975868
0.975868
1
0.213759
1.80193e-06
1e-10
1e-10
1e-10
1e-10
1e-10
1e-10
1e-10
1
1
1
1
1
1
1
1e-10
1e-10
1e-10
1e-10
1e-10
1
1
1
1
1
1
1e-10
1e-10
1e-10
1e-10
1e-10
1e-10
1e-10
1e-10
0.000897601
0.520218
1
1
0.520218
0.0008976
1e-10
1e-10
1e-10
1e-10
1e-10
1e-10
1e-10
1e-10
1
1
1
1
1
1
1e-10
1e-10
1e-10
1e-10
1e-10
1e-10
1
1
1
1
1
1
1e-10
1e-10
1e-10
1e-10
1e-10
1e-10
1e-10
1e-10
2.21162e-06
0.802799
1
1
0.8028
2.21162e-06
1e-10
1e-10
1e-10
1e-10
1e-10
1e-10
1e-10
1e-10
1
1
1
1
1
1
1e-10
1e-10
1e-10
1e-10
1e-10
1e-10
1e-10
1
1
1
1
1
1
1e-10
1e-10
1e-10
1e-10
1e-10
1e-10
1e-10
0.986564
1
0.406614
0.406614
1
0.986564
1e-10
1e-10
1e-10
1e-10
1e-10
1e-10
1e-10
1
1
1
1
1
1
1e-10
1e-10
1e-10
1e-10
1e-10
1e-10
1e-10
1e-10
1
1
1
1
1
1
1e-10
1e-10
1e-10
1e-10
1e-10
1e-10
1
1
0.107621
1e-10
1e-10
0.107621
1
1
1e-10
1e-10
1e-10
1e-10
1e-10
1e-10
1
1
1
1
1
1
1e-10
1e-10
1e-10
1e-10
1e-10
1e-10
1e-10
1e-10
1e-10
1
1
1
1
1
1
1
1e-10
1e-10
0.864062
1
0.878107
2.35293e-05
1e-10
1e-10
1e-10
1e-10
2.35289e-05
0.878107
1
0.864062
1e-10
1e-10
1
1
1
1
1
1
1
1e-10
1e-10
1e-10
1e-10
1e-10
1e-10
1e-10
1e-10
1e-10
1e-10
1e-10
1
1
1
1
1
1e-10
1
1
0.548386
1
1e-10
1e-10
1e-10
1e-10
1e-10
1e-10
1e-10
1e-10
1
0.548384
1
1
1e-10
1
1
1
1
1
1e-10
1e-10
1e-10
1e-10
1e-10
1e-10
1e-10
1e-10
1e-10
1e-10
1e-10
1e-10
1
1
1
1
1
1
1
1e-10
1
1e-10
1e-10
1e-10
1e-10
1e-10
1e-10
1e-10
1e-10
1e-10
1e-10
1
1e-10
1
1
1
1
1
1
1
1e-10
1e-10
1e-10
1e-10
1e-10
1e-10
1e-10
1e-10
1e-10
1e-10
1e-10
1e-10
1e-10
1
1
1
1
1
1
1
1e-10
1e-10
1e-10
1e-10
1e-10
1e-10
1e-10
1e-10
1e-10
1e-10
1e-10
1e-10
1
1
1
1
1
1
1
1e-10
1e-10
1e-10
1e-10
1e-10
1e-10
1e-10
1e-10
1e-10
1e-10
1e-10
1e-10
1e-10
1e-10
1e-10
1
1
1
1
1
1
0.782818
1e-10
1e-10
1e-10
1e-10
1e-10
1e-10
1e-10
1e-10
1e-10
1e-10
0.782818
1
1
1
1
1
1
1e-10
1e-10
1e-10
1e-10
1e-10
1e-10
1e-10
1e-10
1e-10
1e-10
1e-10
1e-10
1e-10
1e-10
1e-10
1e-10
1
1
1
1
1
1
1
1e-10
1e-10
1e-10
1e-10
1e-10
1e-10
1e-10
1e-10
1e-10
1e-10
1
1
1
1
1
1
1
1e-10
1e-10
1e-10
1e-10
1e-10
1e-10
1e-10
1e-10
1e-10
1e-10
1e-10
1e-10
1e-10
1e-10
1e-10
1e-10
1e-10
1
1
1
1
1
1
1
1e-10
1e-10
1e-10
1e-10
1e-10
1e-10
1e-10
1e-10
1
1
1
1
1
1
1
1e-10
1e-10
1e-10
1e-10
1e-10
1e-10
1e-10
1e-10
1e-10
1e-10
1e-10
1e-10
1e-10
1e-10
1e-10
1e-10
1e-10
1e-10
1e-10
1
1
1
1
1
1
1
1e-10
1e-10
1e-10
1e-10
1e-10
1e-10
1
1
1
1
1
1
1
1e-10
1e-10
1e-10
1e-10
1e-10
1e-10
1e-10
1e-10
1e-10
1e-10
1e-10
1e-10
1e-10
1e-10
1e-10
1e-10
1e-10
1e-10
1e-10
1e-10
1
1
1
1
1
1
1
1e-10
1e-10
1e-10
1e-10
1e-10
1e-10
1
1
1
1
1
1
1
1e-10
1e-10
1e-10
1e-10
1e-10
1e-10
1e-10
1e-10
1e-10
1e-10
1e-10
1e-10
1e-10
1e-10
1e-10
1e-10
1e-10
1e-10
1e-10
1e-10
1e-10
1
1
1
1
1
1e-10
1
1e-10
1e-10
1e-10
1e-10
1
1e-10
1
1
1
1
1
1e-10
1e-10
1e-10
1e-10
1e-10
1e-10
1e-10
1e-10
1e-10
1e-10
1e-10
1e-10
1e-10
1e-10
1e-10
1e-10
1e-10
1e-10
1e-10
1e-10
1e-10
1e-10
1e-10
1
1
1
1
1
1
1
1e-10
1e-10
1
1
1
1
1
1
1
1e-10
1e-10
1e-10
1e-10
1e-10
1e-10
1e-10
1e-10
1e-10
1e-10
1e-10
1e-10
1e-10
1e-10
1e-10
1e-10
1e-10
1e-10
1e-10
1e-10
1e-10
1e-10
1e-10
1e-10
1e-10
1
1
1
1
1
1
1
1
1
1
1
1
1
1
1e-10
1e-10
1e-10
1e-10
1e-10
1e-10
1e-10
1e-10
1e-10
1e-10
1e-10
1e-10
1e-10
1e-10
1e-10
1e-10
1e-10
1e-10
1e-10
1e-10
1e-10
1e-10
1e-10
1e-10
1e-10
1e-10
1e-10
1
1
1
1
1
1
1
1
1
1
1
1
1e-10
1e-10
1e-10
1e-10
1e-10
1e-10
1e-10
1e-10
1e-10
1e-10
1e-10
1e-10
1e-10
1e-10
1e-10
1e-10
1e-10
1e-10
1e-10
1e-10
1e-10
1e-10
1e-10
1e-10
1e-10
1e-10
1e-10
1e-10
1
1
1
1
1
1
1
1
1
1
1
1
1e-10
1e-10
1e-10
1e-10
1e-10
1e-10
1e-10
1e-10
1e-10
1e-10
1e-10
1e-10
1e-10
1e-10
1e-10
1e-10
1e-10
1e-10
1e-10
1e-10
1e-10
1e-10
1e-10
1e-10
1e-10
1e-10
1e-10
1e-10
1e-10
1
1
1
1
1
1
1
1
1
1
1e-10
1e-10
1e-10
1e-10
1e-10
1e-10
1e-10
1e-10
1e-10
1e-10
1e-10
1e-10
1e-10
1e-10
1e-10
1e-10
1e-10
1e-10
1e-10
1e-10
1e-10
1e-10
1e-10
1e-10
1e-10
1e-10
1e-10
1e-10
1e-10
1e-10
1e-10
1
1
1
1
1
1
1
1
1e-10
1e-10
1e-10
1e-10
1e-10
1e-10
1e-10
1e-10
1e-10
1e-10
1e-10
1e-10
1e-10
1e-10
1e-10
1e-10
1e-10
1e-10
1e-10
1e-10
1e-10
1e-10
1e-10
1e-10
1e-10
1e-10
1e-10
1e-10
1e-10
1e-10
1e-10
1e-10
1e-10
1
1
1
1
1
1
1e-10
1e-10
1e-10
1e-10
1e-10
1e-10
1e-10
1e-10
1e-10
1e-10
1e-10
1e-10
1e-10
1e-10
1e-10
1e-10
1e-10


POINT_DATA	7401
VECTORS u0 float
0	0	0
0	0	0
0	0	0
0	0	0
0	0	0
0	0	0
0	0	0
0	0	0
0	0	0
0	0	0
0	0	0
0	0	0
0	0	0
0	0	0
0	0	0
0	0	0
0	0	0
0	0	0
0	0	0
0	0	0
0	0	0
0	0	0
0	0	0
0	0	0
0	0	0
0	0	0
0	0	0
0	0	0
0	0	0
0	0	0
0	0	0
0	0	0
0	0	0
0	0	0
0	0	0
0	0	0
0	0	0
0	0	0
0	0	0
0	0	0
0	0	0
-0.00232597	-0.00131798	0
-0.0015138	-0.0010545	0
-0.00115774	-0.000901495	0
-0.00094052	-0.00081537	0
-0.000708833	-0.000718024	0
-0.000232546	-0.000606374	0
-0.000569126	-0.00074565	0
-0.000572718	-0.000818913	0
-0.000556723	-0.000821911	0
-0.000513668	-0.000799246	0
-0.000459132	-0.000775517	0
-0.000404736	-0.000751068	0
-0.000352516	-0.00072739	0
-0.000302947	-0.000705345	0
-0.00025586	-0.000685426	0
-0.000210796	-0.000668029	0
-0.000167232	-0.000653394	0
-0.000124702	-0.000641727	0
-8.28267e-05	-0.000633219	0
-4.13299e-05	-0.000628034	0
1.34451e-09	-0.000626295	0
4.13326e-05	-0.000628035	0
8.28294e-05	-0.00063322	0
0.000124705	-0.000641728	0
0.000167234	-0.000653395	0
0.000210798	-0.00066803	0
0.000255863	-0.000685426	0
0.000302949	-0.000705345	0
0.000352519	-0.000727391	0
0.000404738	-0.000751069	0
0.000459134	-0.000775518	0
0.00051367	-0.000799246	0
0.000556725	-0.000821911	0
0.000572719	-0.000818913	0
0.000569127	-0.00074565	0
0.000232546	-0.000606374	0
0.000708833	-0.000718024	0
0.00094052	-0.00081537	0
0.00115774	-0.000901495	0
0.0015138	-0.0010545	0
0.00232597	-0.00131798	0
-0.00312321	-0.00254581	0
-0.00226397	-0.00218398	0
-0.00175476	-0.00192291	0
-0.00142051	-0.00177235	0
-0.00113195	-0.00169902	0
-0.000841651	-0.00171093	0
-0.000806767	-0.00181949	0
-0.000868962	-0.00167685	0
-0.000843171	-0.00163153	0
-0.000773025	-0.00159086	0
-0.000694261	-0.00154105	0
-0.000613558	-0.00148995	0
-0.000536056	-0.00143938	0
-0.000461706	-0.00139264	0
-0.000390617	-0.00135106	0
-0.000322307	-0.00131518	0
-0.000256049	-0.00128535	0
-0.000191149	-0.00126179	0
-0.000127075	-0.00124474	0
-6.34411e-05	-0.00123441	0
2.28233e-09	-0.00123095	0
6.34456e-05	-0.00123441	0
0.000127079	-0.00124474	0
0.000191153	-0.00126179	0
0.000256054	-0.00128535	0
0.000322311	-0.00131518	0
0.000390622	-0.00135106	0
0.00046171	-0.00139264	0
0.00053606	-0.00143939	0
0.000613561	-0.00148995	0
0.000694264	-0.00154105	0
0.000773028	-0.00159086	0
0.000843173	-0.00163153	0
0.000868964	-0.00167685	0
0.000806769	-0.00181949	0
0.000841652	-0.00171093	0
0.00113195	-0.00169902	0
0.00142051	-0.00177234	0
0.00175476	-0.00192291	0
0.00226397	-0.00218398	0
0.00312321	-0.00254581	0
-0.00390493	-0.00354204	0
-0.00305739	-0.00323441	0
-0.00243302	-0.00297713	0
-0.00197368	-0.00280704	0
-0.00161571	-0.00270663	0
-0.0013298	-0.00259075	0
-0.000821026	-0.00250848	0
-0.00124657	-0.00258649	0
-0.00119857	-0.00256979	0
-0.00109328	-0.00250585	0
-0.000986608	-0.00241233	0
-0.000876322	-0.00231951	0
-0.000766512	-0.00223264	0
-0.000661007	-0.00215431	0
-0.000559723	-0.00208609	0
-0.000462249	-0.0020282	0
-0.000367553	-0.00198059	0
-0.000274614	-0.00194335	0
-0.000182669	-0.00191659	0
-9.12314e-05	-0.00190045	0
2.9122e-09	-0.00189506	0
9.12373e-05	-0.00190045	0
0.000182675	-0.00191659	0
0.00027462	-0.00194335	0
0.000367559	-0.00198059	0
0.000462254	-0.0020282	0
0.000559729	-0.00208609	0
0.000661012	-0.00215432	0
0.000766517	-0.00223264	0
0.000876327	-0.00231951	0
0.000986612	-0.00241233	0
0.00109329	-0.00250585	0
0.00119857	-0.00256979	0
0.00124657	-0.00258649	0
0.000821028	-0.00250847	0
0.0013298	-0.00259075	0
0.00161571	-0.00270662	0
0.00197368	-0.00280704	0
0.00243302	-0.00297713	0
0.00305739	-0.00323441	0
0.00390493	-0.00354204	0
-0.00458505	-0.00447888	0
-0.00374305	-0.00420252	0
-0.00304906	-0.00396522	0
-0.00249559	-0.00380465	0
-0.00206726	-0.00372313	0
-0.0017406	-0.00373133	0
-0.00146812	-0.00386768	0
-0.00170421	-0.00411461	0
-0.00160511	-0.00370237	0
-0.00146312	-0.00351368	0
-0.00131283	-0.00336199	0
-0.00116592	-0.00320547	0
-0.0010198	-0.00307111	0
-0.000878081	-0.00295522	0
-0.000743337	-0.00285659	0
-0.000614001	-0.00277417	0
-0.000488427	-0.0027072	0
-0.000365085	-0.00265525	0
-0.000242933	-0.0026182	0
-0.000121353	-0.00259597	0
3.09848e-09	-0.00258856	0
0.00012136	-0.00259597	0
0.00024294	-0.0026182	0
0.000365091	-0.00265525	0
0.000488433	-0.0027072	0
0.000614007	-0.00277417	0
0.000743344	-0.00285659	0
0.000878087	-0.00295522	0
0.00101981	-0.00307111	0
0.00116592	-0.00320547	0
0.00131283	-0.00336199	0
0.00146313	-0.00351368	0
0.00160511	-0.00370237	0
0.00170422	-0.00411461	0
0.00146812	-0.00386768	0
0.0017406	-0.00373132	0
0.00206727	-0.00372313	0
0.00249559	-0.00380465	0
0.00304906	-0.00396522	0
0.00374305	-0.00420251	0
0.00458505	-0.00447888	0
-0.00521134	-0.00536895	0
-0.00437013	-0.00511018	0
-0.00361628	-0.00488902	0
-0.00297606	-0.00473787	0
-0.00246353	-0.00467142	0
-0.00208979	-0.00466637	0
-0.00193031	-0.00469449	0
-0.00194319	-0.00486449	0
-0.00205841	-0.00507661	0
-0.0019134	-0.00463061	0
-0.00170107	-0.00435268	0
-0.00149755	-0.00414091	0
-0.00130334	-0.00394736	0
-0.00111946	-0.00378958	0
-0.0009459	-0.00365832	0
-0.000781086	-0.00354997	0
-0.000621349	-0.00346276	0
-0.000464463	-0.00339575	0
-0.000309065	-0.00334829	0
-0.000154387	-0.00331998	0
2.82139e-09	-0.00331057	0
0.000154393	-0.00331998	0
0.00030907	-0.0033483	0
0.000464469	-0.00339575	0
0.000621355	-0.00346276	0
0.000781092	-0.00354997	0
0.000945906	-0.00365832	0
0.00111947	-0.00378958	0
0.00130335	-0.00394736	0
0.00149756	-0.00414091	0
0.00170107	-0.00435268	0
0.0019134	-0.0046306	0
0.00205842	-0.00507661	0
0.0019432	-0.00486449	0
0.00193031	-0.00469449	0
0.0020898	-0.00466637	0
0.00246353	-0.00467142	0
0.00297606	-0.00473787	0
0.00361628	-0.00488902	0
0.00437013	-0.00511018	0
0.00521134	-0.00536895	0
-0.00582007	-0.00622975	0
-0.00496265	-0.00597534	0
-0.00414589	-0.00575708	0
-0.00341807	-0.00560218	0
-0.00282543	-0.00552335	0
-0.00241772	-0.00550417	0
-0.00222742	-0.00550627	0
-0.00221388	-0.00555032	0
-0.00226175	-0.00570478	0
-0.00238715	-0.00588403	0
-0.00215712	-0.00539232	0
-0.00187709	-0.00507677	0
-0.00161839	-0.00484243	0
-0.00138299	-0.00463956	0
-0.00116705	-0.00447622	0
-0.00096291	-0.00434249	0
-0.000765764	-0.00423582	0
-0.000572203	-0.00415462	0
-0.000380627	-0.00409758	0
-0.000190091	-0.00406374	0
2.1321e-09	-0.00405251	0
0.000190096	-0.00406374	0
0.000380631	-0.00409758	0
0.000572208	-0.00415462	0
0.00076577	-0.00423582	0
0.000962916	-0.00434249	0
0.00116706	-0.00447622	0
0.00138299	-0.00463956	0
0.00161839	-0.00484243	0
0.00187709	-0.00507677	0
0.00215713	-0.00539231	0
0.00238716	-0.00588403	0
0.00226175	-0.00570478	0
0.00221388	-0.00555032	0
0.00222743	-0.00550627	0
0.00241772	-0.00550416	0
0.00282543	-0.00552335	0
0.00341807	-0.00560218	0
0.00414589	-0.00575708	0
0.00496265	-0.00597533	0
0.00582007	-0.00622974	0
-0.00644041	-0.00709498	0
-0.00554265	-0.00683551	0
-0.00465697	-0.0066056	0
-0.00383312	-0.00642677	0
-0.003145	-0.00632565	0
-0.00269818	-0.00629257	0
-0.00250228	-0.00626844	0
-0.0024626	-0.00624763	0
-0.00250092	-0.00626508	0
-0.00255377	-0.00637771	0
-0.00264343	-0.00651501	0
-0.00230664	-0.00602729	0
-0.00196015	-0.0057164	0
-0.00166547	-0.00549052	0
-0.00140382	-0.00529534	0
-0.00115807	-0.00513942	0
-0.000920161	-0.00501641	0
-0.000687036	-0.00492379	0
-0.000456727	-0.00485919	0
-0.00022801	-0.00482102	0
1.14442e-09	-0.00480839	0
0.000228012	-0.00482102	0
0.00045673	-0.00485919	0
0.000687039	-0.00492379	0
0.000920165	-0.00501641	0
0.00115808	-0.00513942	0
0.00140383	-0.00529534	0
0.00166548	-0.00549052	0
0.00196016	-0.0057164	0
0.00230664	-0.00602729	0
0.00264344	-0.00651501	0
0.00255377	-0.00637771	0
0.00250092	-0.00626508	0
0.0024626	-0.00624763	0
0.00250228	-0.00626844	0
0.00269818	-0.00629257	0
0.003145	-0.00632565	0
0.00383312	-0.00642676	0
0.00465697	-0.00660559	0
0.00554265	-0.00683551	0
0.00644041	-0.00709498	0
-0.00708503	-0.00800925	0
-0.00612362	-0.00774259	0
-0.00516977	-0.00749353	0
-0.00424775	-0.00726503	0
-0.00340085	-0.00710325	0
-0.00292207	-0.0070444	0
-0.0027801	-0.00697001	0
-0.00273726	-0.00688787	0
-0.00273529	-0.00684156	0
-0.00275868	-0.00684035	0
-0.00276805	-0.00691757	0
-0.00276752	-0.00701367	0
-0.00232226	-0.00657924	0
-0.00195984	-0.00630637	0
-0.00165248	-0.0060999	0
-0.0013624	-0.00592685	0
-0.00108099	-0.00579482	0
-0.000806353	-0.00569584	0
-0.000535705	-0.00562697	0
-0.000267326	-0.00558636	0
1.25998e-11	-0.00557293	0
0.000267327	-0.00558636	0
0.000535706	-0.00562697	0
0.000806354	-0.00569584	0
0.00108099	-0.00579482	0
0.00136241	-0.00592685	0
0.00165249	-0.0060999	0
0.00195984	-0.00630637	0
0.00232227	-0.00657924	0
0.00276752	-0.00701366	0
0.00276806	-0.00691757	0
0.00275868	-0.00684035	0
0.0027353	-0.00684155	0
0.00273726	-0.00688787	0
0.00278011	-0.00697001	0
0.00292207	-0.0070444	0
0.00340085	-0.00710325	0
0.00424775	-0.00726503	0
0.00516977	-0.00749353	0
0.00612362	-0.00774259	0
0.00708502	-0.00800925	0
-0.00774293	-0.00901128	0
-0.0067051	-0.00874485	0
-0.00569191	-0.00849336	0
-0.00469171	-0.00824483	0
-0.00362283	-0.00797721	0
-0.00310055	-0.00762292	0
-0.00306932	-0.00754332	0
-0.00303548	-0.00745066	0
-0.00299081	-0.00739188	0
-0.00296857	-0.00735528	0
-0.00293666	-0.00734045	0
-0.0028511	-0.0073734	0
-0.00266686	-0.00741198	0
-0.00225938	-0.00708443	0
-0.00190599	-0.00686027	0
-0.00156662	-0.00669501	0
-0.00124253	-0.00656456	0
-0.000926435	-0.00646615	0
-0.000615311	-0.00639707	0
-0.000306944	-0.00635632	0
-1.09311e-09	-0.00634287	0
0.000306942	-0.00635632	0
0.00061531	-0.00639707	0
0.000926435	-0.00646615	0
0.00124253	-0.00656456	0
0.00156662	-0.00669501	0
0.00190599	-0.00686027	0
0.00225939	-0.00708442	0
0.00266686	-0.00741197	0
0.0028511	-0.00737339	0
0.00293666	-0.00734044	0
0.00296857	-0.00735527	0
0.00299081	-0.00739188	0
0.00303548	-0.00745066	0
0.00306933	-0.00754331	0
0.00310055	-0.00762292	0
0.00362283	-0.00797721	0
0.00469171	-0.00824482	0
0.00569191	-0.00849336	0
0.0067051	-0.00874485	0
0.00774293	-0.00901128	0