# vtk DataFile Version 4.1
vtk output
ASCII
DATASET UNSTRUCTURED_GRID

POINTS	14586	float
0	0	0	
0.04	0	0	
0.08	0	0	
0.12	0	0	
0.16	0	0	
0.2	0	0	
0.24	0	0	
0.28	0	0	
0.32	0	0	
0.36	0	0	
0.4	0	0	
0	0.04	0	
0.04	0.04	0	
0.08	0.04	0	
0.12	0.04	0	
0.16	0.04	0	
0.2	0.04	0	
0.24	0.04	0	
0.28	0.04	0	
0.32	0.04	0	
0.36	0.04	0	
0.4	0.04	0	
0	0.08	0	
0.04	0.08	0	
0.08	0.08	0	
0.12	0.08	0	
0.16	0.08	0	
0.2	0.08	0	
0.24	0.08	0	
0.28	0.08	0	
0.32	0.08	0	
0.36	0.08	0	
0.4	0.08	0	
0	0.12	0	
0.04	0.12	0	
0.08	0.12	0	
0.12	0.12	0	
0.16	0.12	0	
0.2	0.12	0	
0.24	0.12	0	
0.28	0.12	0	
0.32	0.12	0	
0.36	0.12	0	
0.4	0.12	0	
0	0.16	0	
0.04	0.16	0	
0.08	0.16	0	
0.12	0.16	0	
0.16	0.16	0	
0.2	0.16	0	
0.24	0.16	0	
0.28	0.16	0	
0.32	0.16	0	
0.36	0.16	0	
0.4	0.16	0	
0	0.2	0	
0.04	0.2	0	
0.08	0.2	0	
0.12	0.2	0	
0.16	0.2	0	
0.2	0.2	0	
0.24	0.2	0	
0.28	0.2	0	
0.32	0.2	0	
0.36	0.2	0	
0.4	0.2	0	
0	0.24	0	
0.04	0.24	0	
0.08	0.24	0	
0.12	0.24	0	
0.16	0.24	0	
0.2	0.24	0	
0.24	0.24	0	
0.28	0.24	0	
0.32	0.24	0	
0.36	0.24	0	
0.4	0.24	0	
0	0.28	0	
0.04	0.28	0	
0.08	0.28	0	
0.12	0.28	0	
0.16	0.28	0	
0.2	0.28	0	
0.24	0.28	0	
0.28	0.28	0	
0.32	0.28	0	
0.36	0.28	0	
0.4	0.28	0	
0	0.32	0	
0.04	0.32	0	
0.08	0.32	0	
0.12	0.32	0	
0.16	0.32	0	
0.2	0.32	0	
0.24	0.32	0	
0.28	0.32	0	
0.32	0.32	0	
0.36	0.32	0	
0.4	0.32	0	
0	0.36	0	
0.04	0.36	0	
0.08	0.36	0	
0.12	0.36	0	
0.16	0.36	0	
0.2	0.36	0	
0.24	0.36	0	
0.28	0.36	0	
0.32	0.36	0	
0.36	0.36	0	
0.4	0.36	0	
0	0.4	0	
0.04	0.4	0	
0.08	0.4	0	
0.12	0.4	0	
0.16	0.4	0	
0.2	0.4	0	
0.24	0.4	0	
0.28	0.4	0	
0.32	0.4	0	
0.36	0.4	0	
0.4	0.4	0	
0	0.44	0	
0.04	0.44	0	
0.08	0.44	0	
0.12	0.44	0	
0.16	0.44	0	
0.2	0.44	0	
0.24	0.44	0	
0.28	0.44	0	
0.32	0.44	0	
0.36	0.44	0	
0.4	0.44	0	
0	0.48	0	
0.04	0.48	0	
0.08	0.48	0	
0.12	0.48	0	
0.16	0.48	0	
0.2	0.48	0	
0.24	0.48	0	
0.28	0.48	0	
0.32	0.48	0	
0.36	0.48	0	
0.4	0.48	0	
0	0.52	0	
0.04	0.52	0	
0.08	0.52	0	
0.12	0.52	0	
0.16	0.52	0	
0.2	0.52	0	
0.24	0.52	0	
0.28	0.52	0	
0.32	0.52	0	
0.36	0.52	0	
0.4	0.52	0	
0	0.56	0	
0.04	0.56	0	
0.08	0.56	0	
0.12	0.56	0	
0.16	0.56	0	
0.2	0.56	0	
0.24	0.56	0	
0.28	0.56	0	
0.32	0.56	0	
0.36	0.56	0	
0.4	0.56	0	
0	0.6	0	
0.04	0.6	0	
0.08	0.6	0	
0.12	0.6	0	
0.16	0.6	0	
0.2	0.6	0	
0.24	0.6	0	
0.28	0.6	0	
0.32	0.6	0	
0.36	0.6	0	
0.4	0.6	0	
0	0.64	0	
0.04	0.64	0	
0.08	0.64	0	
0.12	0.64	0	
0.16	0.64	0	
0.2	0.64	0	
0.24	0.64	0	
0.28	0.64	0	
0.32	0.64	0	
0.36	0.64	0	
0.4	0.64	0	
0	0.68	0	
0.04	0.68	0	
0.08	0.68	0	
0.12	0.68	0	
0.16	0.68	0	
0.2	0.68	0	
0.24	0.68	0	
0.28	0.68	0	
0.32	0.68	0	
0.36	0.68	0	
0.4	0.68	0	
0	0.72	0	
0.04	0.72	0	
0.08	0.72	0	
0.12	0.72	0	
0.16	0.72	0	
0.2	0.72	0	
0.24	0.72	0	
0.28	0.72	0	
0.32	0.72	0	
0.36	0.72	0	
0.4	0.72	0	
0	0.76	0	
0.04	0.76	0	
0.08	0.76	0	
0.12	0.76	0	
0.16	0.76	0	
0.2	0.76	0	
0.24	0.76	0	
0.28	0.76	0	
0.32	0.76	0	
0.36	0.76	0	
0.4	0.76	0	
0	0.8	0	
0.04	0.8	0	
0.08	0.8	0	
0.12	0.8	0	
0.16	0.8	0	
0.2	0.8	0	
0.24	0.8	0	
0.28	0.8	0	
0.32	0.8	0	
0.36	0.8	0	
0.4	0.8	0	
0	0.84	0	
0.04	0.84	0	
0.08	0.84	0	
0.12	0.84	0	
0.16	0.84	0	
0.2	0.84	0	
0.24	0.84	0	
0.28	0.84	0	
0.32	0.84	0	
0.36	0.84	0	
0.4	0.84	0	
0	0.88	0	
0.04	0.88	0	
0.08	0.88	0	
0.12	0.88	0	
0.16	0.88	0	
0.2	0.88	0	
0.24	0.88	0	
0.28	0.88	0	
0.32	0.88	0	
0.36	0.88	0	
0.4	0.88	0	
0	0.92	0	
0.04	0.92	0	
0.08	0.92	0	
0.12	0.92	0	
0.16	0.92	0	
0.2	0.92	0	
0.24	0.92	0	
0.28	0.92	0	
0.32	0.92	0	
0.36	0.92	0	
0.4	0.92	0	
0	0.96	0	
0.04	0.96	0	
0.08	0.96	0	
0.12	0.96	0	
0.16	0.96	0	
0.2	0.96	0	
0.24	0.96	0	
0.28	0.96	0	
0.32	0.96	0	
0.36	0.96	0	
0.4	0.96	0	
0	1	0	
0.04	1	0	
0.08	1	0	
0.12	1	0	
0.16	1	0	
0.2	1	0	
0.24	1	0	
0.28	1	0	
0.32	1	0	
0.36	1	0	
0.4	1	0	
0	0	0.04	
0.04	0	0.04	
0.08	0	0.04	
0.12	0	0.04	
0.16	0	0.04	
0.2	0	0.04	
0.24	0	0.04	
0.28	0	0.04	
0.32	0	0.04	
0.36	0	0.04	
0.4	0	0.04	
0	0.04	0.04	
0.04	0.04	0.04	
0.08	0.04	0.04	
0.12	0.04	0.04	
0.16	0.04	0.04	
0.2	0.04	0.04	
0.24	0.04	0.04	
0.28	0.04	0.04	
0.32	0.04	0.04	
0.36	0.04	0.04	
0.4	0.04	0.04	
0	0.08	0.04	
0.04	0.08	0.04	
0.08	0.08	0.04	
0.12	0.08	0.04	
0.16	0.08	0.04	
0.2	0.08	0.04	
0.24	0.08	0.04	
0.28	0.08	0.04	
0.32	0.08	0.04	
0.36	0.08	0.04	
0.4	0.08	0.04	
0	0.12	0.04	
0.04	0.12	0.04	
0.08	0.12	0.04	
0.12	0.12	0.04	
0.16	0.12	0.04	
0.2	0.12	0.04	
0.24	0.12	0.04	
0.28	0.12	0.04	
0.32	0.12	0.04	
0.36	0.12	0.04	
0.4	0.12	0.04	
0	0.16	0.04	
0.04	0.16	0.04	
0.08	0.16	0.04	
0.12	0.16	0.04	
0.16	0.16	0.04	
0.2	0.16	0.04	
0.24	0.16	0.04	
0.28	0.16	0.04	
0.32	0.16	0.04	
0.36	0.16	0.04	
0.4	0.16	0.04	
0	0.2	0.04	
0.04	0.2	0.04	
0.08	0.2	0.04	
0.12	0.2	0.04	
0.16	0.2	0.04	
0.2	0.2	0.04	
0.24	0.2	0.04	
0.28	0.2	0.04	
0.32	0.2	0.04	
0.36	0.2	0.04	
0.4	0.2	0.04	
0	0.24	0.04	
0.04	0.24	0.04	
0.08	0.24	0.04	
0.12	0.24	0.04	
0.16	0.24	0.04	
0.2	0.24	0.04	
0.24	0.24	0.04	
0.28	0.24	0.04	
0.32	0.24	0.04	
0.36	0.24	0.04	
0.4	0.24	0.04	
0	0.28	0.04	
0.04	0.28	0.04	
0.08	0.28	0.04	
0.12	0.28	0.04	
0.16	0.28	0.04	
0.2	0.28	0.04	
0.24	0.28	0.04	
0.28	0.28	0.04	
0.32	0.28	0.04	
0.36	0.28	0.04	
0.4	0.28	0.04	
0	0.32	0.04	
0.04	0.32	0.04	
0.08	0.32	0.04	
0.12	0.32	0.04	
0.16	0.32	0.04	
0.2	0.32	0.04	
0.24	0.32	0.04	
0.28	0.32	0.04	
0.32	0.32	0.04	
0.36	0.32	0.04	
0.4	0.32	0.04	
0	0.36	0.04	
0.04	0.36	0.04	
0.08	0.36	0.04	
0.12	0.36	0.04	
0.16	0.36	0.04	
0.2	0.36	0.04	
0.24	0.36	0.04	
0.28	0.36	0.04	
0.32	0.36	0.04	
0.36	0.36	0.04	
0.4	0.36	0.04	
0	0.4	0.04	
0.04	0.4	0.04	
0.08	0.4	0.04	
0.12	0.4	0.04	
0.16	0.4	0.04	
0.2	0.4	0.04	
0.24	0.4	0.04	
0.28	0.4	0.04	
0.32	0.4	0.04	
0.36	0.4	0.04	
0.4	0.4	0.04	
0	0.44	0.04	
0.04	0.44	0.04	
0.08	0.44	0.04	
0.12	0.44	0.04	
0.16	0.44	0.04	
0.2	0.44	0.04	
0.24	0.44	0.04	
0.28	0.44	0.04	
0.32	0.44	0.04	
0.36	0.44	0.04	
0.4	0.44	0.04	
0	0.48	0.04	
0.04	0.48	0.04	
0.08	0.48	0.04	
0.12	0.48	0.04	
0.16	0.48	0.04	
0.2	0.48	0.04	
0.24	0.48	0.04	
0.28	0.48	0.04	
0.32	0.48	0.04	
0.36	0.48	0.04	
0.4	0.48	0.04	
0	0.52	0.04	
0.04	0.52	0.04	
0.08	0.52	0.04	
0.12	0.52	0.04	
0.16	0.52	0.04	
0.2	0.52	0.04	
0.24	0.52	0.04	
0.28	0.52	0.04	
0.32	0.52	0.04	
0.36	0.52	0.04	
0.4	0.52	0.04	
0	0.56	0.04	
0.04	0.56	0.04	
0.08	0.56	0.04	
0.12	0.56	0.04	
0.16	0.56	0.04	
0.2	0.56	0.04	
0.24	0.56	0.04	
0.28	0.56	0.04	
0.32	0.56	0.04	
0.36	0.56	0.04	
0.4	0.56	0.04	
0	0.6	0.04	
0.04	0.6	0.04	
0.08	0.6	0.04	
0.12	0.6	0.04	
0.16	0.6	0.04	
0.2	0.6	0.04	
0.24	0.6	0.04	
0.28	0.6	0.04	
0.32	0.6	0.04	
0.36	0.6	0.04	
0.4	0.6	0.04	
0	0.64	0.04	
0.04	0.64	0.04	
0.08	0.64	0.04	
0.12	0.64	0.04	
0.16	0.64	0.04	
0.2	0.64	0.04	
0.24	0.64	0.04	
0.28	0.64	0.04	
0.32	0.64	0.04	
0.36	0.64	0.04	
0.4	0.64	0.04	
0	0.68	0.04	
0.04	0.68	0.04	
0.08	0.68	0.04	
0.12	0.68	0.04	
0.16	0.68	0.04	
0.2	0.68	0.04	
0.24	0.68	0.04	
0.28	0.68	0.04	
0.32	0.68	0.04	
0.36	0.68	0.04	
0.4	0.68	0.04	
0	0.72	0.04	
0.04	0.72	0.04	
0.08	0.72	0.04	
0.12	0.72	0.04	
0.16	0.72	0.04	
0.2	0.72	0.04	
0.24	0.72	0.04	
0.28	0.72	0.04	
0.32	0.72	0.04	
0.36	0.72	0.04	
0.4	0.72	0.04	
0	0.76	0.04	
0.04	0.76	0.04	
0.08	0.76	0.04	
0.12	0.76	0.04	
0.16	0.76	0.04	
0.2	0.76	0.04	
0.24	0.76	0.04	
0.28	0.76	0.04	
0.32	0.76	0.04	
0.36	0.76	0.04	
0.4	0.76	0.04	
0	0.8	0.04	
0.04	0.8	0.04	
0.08	0.8	0.04	
0.12	0.8	0.04	
0.16	0.8	0.04	
0.2	0.8	0.04	
0.24	0.8	0.04	
0.28	0.8	0.04	
0.32	0.8	0.04	
0.36	0.8	0.04	
0.4	0.8	0.04	
0	0.84	0.04	
0.04	0.84	0.04	
0.08	0.84	0.04	
0.12	0.84	0.04	
0.16	0.84	0.04	
0.2	0.84	0.04	
0.24	0.84	0.04	
0.28	0.84	0.04	
0.32	0.84	0.04	
0.36	0.84	0.04	
0.4	0.84	0.04	
0	0.88	0.04	
0.04	0.88	0.04	
0.08	0.88	0.04	
0.12	0.88	0.04	
0.16	0.88	0.04	
0.2	0.88	0.04	
0.24	0.88	0.04	
0.28	0.88	0.04	
0.32	0.88	0.04	
0.36	0.88	0.04	
0.4	0.88	0.04	
0	0.92	0.04	
0.04	0.92	0.04	
0.08	0.92	0.04	
0.12	0.92	0.04	
0.16	0.92	0.04	
0.2	0.92	0.04	
0.24	0.92	0.04	
0.28	0.92	0.04	
0.32	0.92	0.04	
0.36	0.92	0.04	
0.4	0.92	0.04	
0	0.96	0.04	
0.04	0.96	0.04	
0.08	0.96	0.04	
0.12	0.96	0.04	
0.16	0.96	0.04	
0.2	0.96	0.04	
0.24	0.96	0.04	
0.28	0.96	0.04	
0.32	0.96	0.04	
0.36	0.96	0.04	
0.4	0.96	0.04	
0	1	0.04	
0.04	1	0.04	
0.08	1	0.04	
0.12	1	0.04	
0.16	1	0.04	
0.2	1	0.04	
0.24	1	0.04	
0.28	1	0.04	
0.32	1	0.04	
0.36	1	0.04	
0.4	1	0.04	
0	0	0.08	
0.04	0	0.08	
0.08	0	0.08	
0.12	0	0.08	
0.16	0	0.08	
0.2	0	0.08	
0.24	0	0.08	
0.28	0	0.08	
0.32	0	0.08	
0.36	0	0.08	
0.4	0	0.08	
0	0.04	0.08	
0.04	0.04	0.08	
0.08	0.04	0.08	
0.12	0.04	0.08	
0.16	0.04	0.08	
0.2	0.04	0.08	
0.24	0.04	0.08	
0.28	0.04	0.08	
0.32	0.04	0.08	
0.36	0.04	0.08	
0.4	0.04	0.08	
0	0.08	0.08	
0.04	0.08	0.08	
0.08	0.08	0.08	
0.12	0.08	0.08	
0.16	0.08	0.08	
0.2	0.08	0.08	
0.24	0.08	0.08	
0.28	0.08	0.08	
0.32	0.08	0.08	
0.36	0.08	0.08	
0.4	0.08	0.08	
0	0.12	0.08	
0.04	0.12	0.08	
0.08	0.12	0.08	
0.12	0.12	0.08	
0.16	0.12	0.08	
0.2	0.12	0.08	
0.24	0.12	0.08	
0.28	0.12	0.08	
0.32	0.12	0.08	
0.36	0.12	0.08	
0.4	0.12	0.08	
0	0.16	0.08	
0.04	0.16	0.08	
0.08	0.16	0.08	
0.12	0.16	0.08	
0.16	0.16	0.08	
0.2	0.16	0.08	
0.24	0.16	0.08	
0.28	0.16	0.08	
0.32	0.16	0.08	
0.36	0.16	0.08	
0.4	0.16	0.08	
0	0.2	0.08	
0.04	0.2	0.08	
0.08	0.2	0.08	
0.12	0.2	0.08	
0.16	0.2	0.08	
0.2	0.2	0.08	
0.24	0.2	0.08	
0.28	0.2	0.08	
0.32	0.2	0.08	
0.36	0.2	0.08	
0.4	0.2	0.08	
0	0.24	0.08	
0.04	0.24	0.08	
0.08	0.24	0.08	
0.12	0.24	0.08	
0.16	0.24	0.08	
0.2	0.24	0.08	
0.24	0.24	0.08	
0.28	0.24	0.08	
0.32	0.24	0.08	
0.36	0.24	0.08	
0.4	0.24	0.08	
0	0.28	0.08	
0.04	0.28	0.08	
0.08	0.28	0.08	
0.12	0.28	0.08	
0.16	0.28	0.08	
0.2	0.28	0.08	
0.24	0.28	0.08	
0.28	0.28	0.08	
0.32	0.28	0.08	
0.36	0.28	0.08	
0.4	0.28	0.08	
0	0.32	0.08	
0.04	0.32	0.08	
0.08	0.32	0.08	
0.12	0.32	0.08	
0.16	0.32	0.08	
0.2	0.32	0.08	
0.24	0.32	0.08	
0.28	0.32	0.08	
0.32	0.32	0.08	
0.36	0.32	0.08	
0.4	0.32	0.08	
0	0.36	0.08	
0.04	0.36	0.08	
0.08	0.36	0.08	
0.12	0.36	0.08	
0.16	0.36	0.08	
0.2	0.36	0.08	
0.24	0.36	0.08	
0.28	0.36	0.08	
0.32	0.36	0.08	
0.36	0.36	0.08	
0.4	0.36	0.08	
0	0.4	0.08	
0.04	0.4	0.08	
0.08	0.4	0.08	
0.12	0.4	0.08	
0.16	0.4	0.08	
0.2	0.4	0.08	
0.24	0.4	0.08	
0.28	0.4	0.08	
0.32	0.4	0.08	
0.36	0.4	0.08	
0.4	0.4	0.08	
0	0.44	0.08	
0.04	0.44	0.08	
0.08	0.44	0.08	
0.12	0.44	0.08	
0.16	0.44	0.08	
0.2	0.44	0.08	
0.24	0.44	0.08	
0.28	0.44	0.08	
0.32	0.44	0.08	
0.36	0.44	0.08	
0.4	0.44	0.08	
0	0.48	0.08	
0.04	0.48	0.08	
0.08	0.48	0.08	
0.12	0.48	0.08	
0.16	0.48	0.08	
0.2	0.48	0.08	
[...]
POINT_DATA	14586
VECTORS u0 float
0	0	0
0.000851179	0	0
0.00139405	0	0
0.00178741	0	0
0.00212918	0	0
0.00245011	0	0
0.00277105	0	0
0.00311284	0	0
0.00350626	0	0
0.00404917	0	0
0.00490015	0	0
0.000539632	-0.00161645	0
0.00103487	-0.00181099	0
0.00146935	-0.00182693	0
0.00182751	-0.00184421	0
0.00214695	-0.00185365	0
0.00245029	-0.00185684	0
0.00275363	-0.00185393	0
0.00307311	-0.00184478	0
0.00343132	-0.0018278	0
0.00386591	-0.00181215	0
0.0043615	-0.00161804	0
0.00100273	-0.00248129	0
0.00129948	-0.00267337	0
0.00160481	-0.00273122	0
0.00190034	-0.0027577	0
0.00217971	-0.00277197	0
0.00245059	-0.00277659	0
0.00272148	-0.0027724	0
0.00300088	-0.00275857	0
0.00329646	-0.00273255	0
0.00360189	-0.0026752	0
0.00389873	-0.00248365	0
0.00127077	-0.00297999	0
0.00150064	-0.00313857	0
0.00173818	-0.0032145	0
0.00197813	-0.00325181	0
0.00221581	-0.00327021	0
0.00245091	-0.0032761	0
0.00268602	-0.00327073	0
0.00292373	-0.00325287	0
0.00316372	-0.0032161	0
0.00340132	-0.00314075	0
0.00363126	-0.00298276	0
0.00147006	-0.003326	0
0.00165804	-0.00346124	0
0.00185233	-0.00353915	0
0.0020507	-0.00358281	0
0.00225081	-0.00360514	0
0.00245126	-0.00361222	0
0.00265171	-0.00360572	0
0.00285184	-0.00358399	0
0.00305024	-0.00354093	0
0.00324457	-0.00346366	0
0.0034326	-0.00332905	0
0.00162903	-0.00358768	0
0.00178684	-0.0037052	0
0.00194874	-0.00378071	0
0.00211436	-0.00382673	0
0.00228243	-0.00385151	0
0.00245161	-0.00385951	0
0.0026208	-0.00385214	0
0.00278888	-0.003828	0
0.00295453	-0.00378263	0
0.00311645	-0.00370779	0
0.00327431	-0.00359094	0
0.00176206	-0.00379707	0
0.00189529	-0.00390107	0
0.00203105	-0.00397271	0
0.00216957	-0.00401891	0
0.00231022	-0.00404476	0
0.00245198	-0.00405327	0
0.00259374	-0.00404543	0
0.00273439	-0.00402026	0
0.00287294	-0.00397473	0
0.00300872	-0.00390378	0
0.00314197	-0.00380049	0
0.00187728	-0.00397119	0
0.00198916	-0.00406486	0
0.00210255	-0.0041324	0
0.00221781	-0.00417764	0
0.00233465	-0.00420363	0
0.00245235	-0.0042123	0
0.00257005	-0.00420432	0
0.0026869	-0.00417903	0
0.00280218	-0.0041345	0
0.00291559	-0.00406768	0
0.00302748	-0.00397474	0
0.00197984	-0.0041205	0
0.00207246	-0.00420626	0
0.00216594	-0.00426999	0
0.00226062	-0.00431375	0
0.00235637	-0.00433936	0
0.00245273	-0.004348	0
0.00254908	-0.00434008	0
0.00264484	-0.00431519	0
0.00273954	-0.00427216	0
0.00283303	-0.00420917	0
0.00292567	-0.00412415	0
0.00207325	-0.00425191	0
0.00214805	-0.00433163	0
0.00222333	-0.00439202	0
0.00229934	-0.00443419	0
0.00237602	-0.00445917	0
0.00245311	-0.00446766	0
0.0025302	-0.00445991	0
0.00260689	-0.00443567	0
0.00268291	-0.00439424	0
0.0027582	-0.0043346	0
0.00283301	-0.00425565	0
0.00215998	-0.00437026	0
0.00221802	-0.00444538	0
0.0022763	-0.00450298	0
0.00233501	-0.00454364	0
0.00239413	-0.00456791	0
0.0024535	-0.0045762	0
0.00251287	-0.00456866	0
0.002572	-0.00454515	0
0.00263072	-0.00450525	0
0.00268901	-0.00444841	0
0.00274706	-0.00437406	0
0.0022418	-0.00447912	0
0.00228386	-0.00455076	0
0.00232604	-0.0046061	0
0.00236845	-0.00464542	0
0.0024111	-0.00466901	0
0.00245389	-0.0046771	0
0.00249669	-0.00466978	0
0.00253934	-0.00464695	0
0.00258176	-0.0046084	0
0.00262395	-0.00455383	0
0.00266602	-0.00448298	0
0.00232003	-0.00458121	0
0.00234671	-0.00465024	0
0.00237343	-0.00470381	0
0.00240027	-0.00474201	0
0.00242724	-0.00476501	0
0.00245429	-0.00477292	0
0.00248134	-0.00476578	0
0.00250831	-0.00474357	0
0.00253516	-0.00470614	0
0.00256189	-0.00465336	0
0.00258858	-0.00458512	0
0.00239565	-0.00467871	0
0.00240739	-0.00474583	0
0.00241913	-0.00479803	0
0.00243093	-0.00483534	0
0.00244279	-0.00485785	0
0.00245469	-0.0048656	0
0.00246659	-0.00485863	0
0.00247845	-0.00483691	0
0.00249026	-0.00480039	0
0.00250201	-0.00474898	0
0.00251376	-0.00468265	0
0.00246942	-0.00477338	0
0.00246654	-0.00483915	0
0.00246365	-0.00489035	0
0.00246078	-0.00492699	0
0.00245793	-0.00494911	0
0.00245509	-0.00495674	0
0.00245226	-0.0049499	0
0.00244941	-0.00492857	0
0.00244655	-0.00489273	0
0.00244367	-0.00484233	0
0.0024408	-0.00477736	0
0.00254191	-0.00486677	0
0.00252465	-0.00493163	0
0.00250737	-0.00498214	0
0.00249008	-0.0050183	0
0.00247279	-0.00504014	0
0.0024555	-0.00504768	0
0.00243821	-0.00504094	0
0.00242092	-0.00501989	0
0.00240363	-0.00498453	0
0.00238636	-0.00493483	0
0.00236911	-0.00487078	0
0.00261362	-0.00496021	0
0.00258212	-0.00502454	0
0.00255061	-0.00507462	0
0.00251906	-0.00511047	0
0.00248749	-0.00513213	0
0.00245591	-0.00513961	0
0.00242432	-0.00513293	0
0.00239275	-0.00511208	0
0.00236121	-0.00507703	0
0.0023297	-0.00502776	0
0.00229821	-0.00496424	0
0.00268493	-0.00505498	0
0.00263928	-0.00511908	0
0.0025936	-0.00516896	0
0.00254787	-0.00520466	0
0.0025021	-0.00522621	0
0.00245631	-0.00523366	0
0.00241052	-0.00522701	0
0.00236476	-0.00520627	0
0.00231903	-0.00517138	0
0.00227336	-0.00512231	0
0.00222772	-0.00505902	0
0.00275618	-0.00515227	0
0.0026964	-0.00521643	0
0.00263657	-0.0052663	0
0.00257667	-0.00530195	0
0.00251671	-0.00532348	0
0.00245672	-0.00533091	0
0.00239673	-0.00532428	0
0.00233677	-0.00530357	0
0.00227688	-0.00526873	0
0.00221705	-0.00521967	0
0.00215728	-0.00515633	0
0.00282768	-0.00525332	0
0.00275373	-0.00531776	0
0.0026797	-0.00536778	0
0.00260558	-0.0054035	0
0.00253138	-0.00542505	0
0.00245713	-0.00543249	0
0.00238289	-0.00542586	0
0.00230868	-0.00540512	0
0.00223457	-0.00537021	0
0.00216054	-0.00532101	0
0.0020866	-0.00525739	0
0.00289967	-0.00535941	0
0.00281146	-0.00542433	0
0.00272314	-0.00547462	0
0.00263469	-0.00551048	0
0.00254614	-0.00553209	0
0.00245754	-0.00553956	0
0.00236894	-0.00553291	0
0.00228039	-0.00551211	0
0.00219195	-0.00547705	0
0.00210363	-0.00542758	0
0.00201543	-0.00536348	0
0.00297237	-0.00547192	0
0.00286976	-0.00553745	0
0.002767	-0.00558811	0
0.00266408	-0.00562417	0
0.00256105	-0.00564588	0
0.00245795	-0.00565337	0
0.00235485	-0.00564669	0
0.00225182	-0.0056258	0
0.0021489	-0.00559055	0
0.00204615	-0.00554071	0
0.00194354	-0.00547599	0
0.00304594	-0.00559235	0
0.00292874	-0.00565862	0
0.00281134	-0.0057097	0
0.00269378	-0.005746	0
0.0025761	-0.00576782	0
0.00245836	-0.00577534	0
0.00234062	-0.00576863	0
0.00222294	-0.00574762	0
0.00210538	-0.00571214	0
0.00198798	-0.00566187	0
0.00187079	-0.00559642	0
0.00312048	-0.00572241	0
0.00298842	-0.00578945	0
0.00285616	-0.005841	0
0.00272375	-0.00587755	0
0.00259127	-0.0058995	0
0.00245877	-0.00590706	0
0.00232627	-0.00590031	0
0.00219379	-0.00587918	0
0.00206138	-0.00584344	0
0.00192912	-0.0057927	0
0.00179707	-0.00572647	0
0.00319595	-0.00586399	0
0.00304876	-0.00593187	0
0.00290131	-0.00598386	0
0.00275385	-0.00602068	0
0.00260648	-0.00604279	0
0.00245918	-0.00605041	0
0.00231187	-0.0060436	0
0.0021645	-0.00602231	0
0.00201705	-0.00598629	0
0.0018696	-0.00593512	0
0.00172241	-0.00586805	0
0.00327278	-0.00601925	0
0.00310942	-0.00608792	0
0.00294637	-0.0061404	0
0.00278379	-0.00617759	0
0.00262159	-0.00619991	0
0.00245958	-0.0062076	0
0.00229758	-0.00620073	0
0.00213538	-0.00617922	0
0.0019728	-0.00614284	0
0.00180975	-0.00609116	0
0.00164639	-0.0060233	0
0.000754582	-0.00274895	-0.000884922
0.00107175	-0.00296088	-0.00109042
0.00146261	-0.00304552	-0.00106346
0.001818	-0.00309447	-0.00105258
0.00214117	-0.00311994	-0.0010465
0.00245009	-0.00312809	-0.00104471
0.00275901	-0.00312037	-0.00104656
0.0030822	-0.00309533	-0.00105269
0.00343763	-0.00304682	-0.00106362
0.00382854	-0.00296264	-0.00109061
0.00414585	-0.00275124	-0.000885075
0.000935246	-0.00255433	-9.28651e-05
0.00121249	-0.00270232	-0.000243178
0.00154269	-0.00277716	-0.000237445
0.00186203	-0.00281056	-0.000223662
0.00216134	-0.00282862	-0.000214918
0.00245031	-0.00283444	-0.000212046
0.0027393	-0.00282904	-0.000214868
0.00303863	-0.00281139	-0.000223562
0.00335802	-0.00277842	-0.00023729
0.00368829	-0.00270404	-0.00024297
0.00396557	-0.00255655	-9.2539e-05
0.0011107	-0.00285131	-0.000123419
0.0013755	-0.00300022	-0.000217868
0.0016515	-0.00307456	-0.000232979
0.00192443	-0.00311017	-0.000231365
0.00219015	-0.00312804	-0.000227778
0.00245059	-0.00313382	-0.000226358
0.00271105	-0.00312852	-0.000227741
0.00297679	-0.00311113	-0.000231288
0.00324977	-0.00307602	-0.000232864
0.00352584	-0.00300221	-0.000217709
0.00379072	-0.00285385	-0.0001232
0.00132161	-0.00317922	-0.000141334
0.00153799	-0.003321	-0.000197833
0.00176466	-0.00339648	-0.00021568
0.00199422	-0.003437	-0.000219735
0.00222319	-0.00345742	-0.000219815
0.00245092	-0.0034639	-0.000219521
0.00267865	-0.00345796	-0.000219785
0.00290765	-0.0034381	-0.000219675
0.00313724	-0.00339814	-0.00021559
0.00336396	-0.00332325	-0.000197712
0.0035804	-0.00318208	-0.000141177
0.0014971	-0.00345357	-0.000146205
0.00167954	-0.00358	-0.000181561
0.00186802	-0.0036561	-0.000196869
0.0020609	-0.00370016	-0.000202729
0.00225577	-0.00372325	-0.000204584
0.00245126	-0.00373063	-0.000204961
0.00264675	-0.00372385	-0.000204561
0.00284164	-0.00370136	-0.000202683
0.00303455	-0.00365791	-0.0001968
0.00322307	-0.00358245	-0.000181469
0.00340555	-0.00345667	-0.000146091
0.00164507	-0.00367959	-0.000138401
0.00179985	-0.00379203	-0.000161441
0.00195857	-0.0038658	-0.000173424
0.0021209	-0.00391152	-0.000179183
0.00228568	-0.00393642	-0.000181621
0.00245161	-0.00394452	-0.000182269
0.00261754	-0.00393706	-0.000181603
0.00278234	-0.00391281	-0.000179147
0.0029447	-0.00386774	-0.00017337
0.00310344	-0.00379463	-0.00016137
0.00325826	-0.00368288	-0.000138315
0.0017722	-0.00386851	-0.000122716
0.00190359	-0.00396941	-0.000138246
0.0020374	-0.00403968	-0.000147359
0.00217386	-0.00408539	-0.000152349
0.00231238	-0.00411113	-0.000154754
0.00245198	-0.00411963	-0.000155454
0.00259158	-0.0041118	-0.000154739
0.00273011	-0.00408674	-0.00015232
0.00286659	-0.00404171	-0.000147317
0.00300041	-0.00397214	-0.00013819
0.00313183	-0.00387195	-0.00012265
0.00188399	-0.00402992	-0.000101902
0.00199466	-0.0041216	-0.000112656
0.00210677	-0.00418811	-0.000119521
0.00222068	-0.00423286	-0.000123606
0.0023361	-0.00425867	-0.000125727
0.00245235	-0.0042673	-0.000126373
0.0025686	-0.00425937	-0.000125715
0.00268403	-0.00423427	-0.000123583
0.00279795	-0.00419022	-0.000119487
0.00291008	-0.00412443	-0.000112613
0.00302077	-0.00403348	-0.00010185
0.00198444	-0.00417084	-7.77068e-05
0.00207622	-0.00425528	-8.53219e-05
0.00216883	-0.00431823	-9.04808e-05
0.00226259	-0.00436159	-9.37308e-05
0.00235736	-0.004387	-9.54967e-05
0.00245273	-0.00439559	-9.60504e-05
0.00254809	-0.00438773	-9.54874e-05
0.00264288	-0.00436303	-9.37126e-05
0.00273665	-0.0043204	-9.04539e-05
0.00282927	-0.00425819	-8.52875e-05
0.00292107	-0.00417449	-7.76662e-05
0.00207648	-0.00429644	-5.12056e-05
0.00215069	-0.00437526	-5.66902e-05
0.00222535	-0.00443508	-6.05696e-05
0.0023007	-0.00447692	-6.31092e-05
0.00237671	-0.00450172	-6.45338e-05
0.00245311	-0.00451016	-6.49899e-05
0.00252951	-0.00450246	-6.45263e-05
0.00260552	-0.0044784	-6.30947e-05
0.00268089	-0.0044373	-6.05484e-05
0.00275556	-0.00437824	-5.66631e-05
0.00282978	-0.00430018	-5.11734e-05
0.00216229	-0.00441065	-2.30589e-05
0.0022199	-0.00448513	-2.70573e-05
0.00227773	-0.0045423	-2.99725e-05
0.00233598	-0.00458269	-3.19344e-05
0.00239462	-0.00460682	-3.30592e-05
0.0024535	-0.00461506	-3.34216e-05
0.00251238	-0.00460757	-3.30534e-05
0.00257103	-0.0045842	-3.19231e-05
0.00262928	-0.00454457	-2.99559e-05
0.00268713	-0.00448816	-2.70362e-05
0.00274474	-0.00441445	-2.30341e-05
0.00224348	-0.00451646	6.33365e-06
0.00228522	-0.00458763	3.40207e-06
0.00232707	-0.00464265	1.21974e-06
0.00236915	-0.00468175	-2.78643e-07
0.00241145	-0.00470523	-1.14924e-06
0.00245389	-0.00471328	-1.43384e-06
0.00249634	-0.004706	-1.14482e-06
0.00253865	-0.00468329	-2.69998e-07
0.00258073	-0.00464496	1.23238e-06
0.00262259	-0.00459071	3.41816e-06
0.00266434	-0.00452032	6.35274e-06
0.00232125	-0.00461626	3.6737e-05
0.00234769	-0.00468495	3.45966e-05
0.00237417	-0.00473826	3.29784e-05
0.00240077	-0.00477629	3.18533e-05
0.00242749	-0.00479919	3.11915e-05
0.00245429	-0.00480707	3.09754e-05
0.00248109	-0.00479996	3.11948e-05
0.00250781	-0.00477785	3.18599e-05
0.00253442	-0.00474059	3.29876e-05
0.00256091	-0.00468807	3.46086e-05
0.00258736	-0.00462017	3.67513e-05
0.00239652	-0.00471201	6.80347e-05
0.00240808	-0.00477886	6.64977e-05
0.00241966	-0.00483086	6.53232e-05
0.00243128	-0.00486804	6.44998e-05
0.00244297	-0.00489046	6.40129e-05
0.00245469	-0.00489819	6.38525e-05
0.00246641	-0.00489124	6.40153e-05
0.0024781	-0.00486961	6.45044e-05
0.00248973	-0.00483322	6.533e-05
0.00250131	-0.00478202	6.65062e-05
0.00251289	-0.00471596	6.80446e-05
0.00247001	-0.00480533	0.000100185
0.00246701	-0.00487088	9.91238e-05
0.00246401	-0.00492191	9.8309e-05
0.00246102	-0.00495844	9.77337e-05
0.00245805	-0.00498049	9.73916e-05
0.00245509	-0.0049881	9.7279e-05
0.00245214	-0.00498128	9.73932e-05
0.00244917	-0.00496002	9.77368e-05
0.00244619	-0.00492429	9.83133e-05
0.00244319	-0.00487406	9.91291e-05
0.0024402	-0.00480931	0.000100191
0.00254229	-0.00489765	0.0001332
0.00252495	-0.00496233	0.000132531
0.0025076	-0.00501269	0.000132014
0.00249024	-0.00504876	0.000131647
0.00247287	-0.00507054	0.000131428
0.0024555	-0.00507807	0.000131356
0.00243813	-0.00507134	0.000131429
0.00242077	-0.00505036	0.000131649
0.00240341	-0.00501509	0.000132016
0.00238606	-0.00496553	0.000132534
0.00236873	-0.00490166	0.000133203
0.00261381	-0.00499025	0.000167145
0.00258228	-0.00505442	0.000166808
0.00255072	-0.00510438	0.000166546
0.00251913	-0.00514015	0.000166359
0.00248753	-0.00516175	0.000166247
0.00245591	-0.00516922	0.000166209
0.00242429	-0.00516255	0.000166247
0.00239268	-0.00514175	0.000166359
0.0023611	-0.00510679	0.000166546
0.00232955	-0.00505764	0.000166808
0.00229802	-0.00499428	0.000167145
0.00268495	-0.00508434	0.000202112
0.0026393	-0.00514831	0.000202068
0.00259362	-0.00519808	0.000202032
0.00254788	-0.0052337	0.000202003
0.00250211	-0.0052552	0.000201985
0.00245631	-0.00526264	0.000201979
0.00241052	-0.00525601	0.000201984
0.00236475	-0.00523531	0.000202002
0.00231902	-0.0052005	0.00020203
0.00227334	-0.00515154	0.000202066
0.00222769	-0.00508839	0.000202108
0.00275606	-0.0051811	0.00023823
0.0026963	-0.00524513	0.000238455
0.0026365	-0.00529489	0.000238623
0.00257662	-0.00533048	0.000238739
0.00251669	-0.00535196	0.000238805
0.00245672	-0.00535939	0.000238825
0.00239676	-0.00535277	0.000238804
0.00233683	-0.0053321	0.000238737
0.00227696	-0.00529732	0.00023862
0.00221715	-0.00524837	0.000238451
0.00215741	-0.00518515	0.000238224
0.00282741	-0.00528172	0.000275662
0.00275351	-0.00534603	0.000276139
0.00267954	-0.00539595	0.000276497
0.00260547	-0.00543161	0.000276745
0.00253132	-0.00545312	0.000276889
0.00245713	-0.00546055	0.000276935
0.00238294	-0.00545393	0.000276888
0.00230879	-0.00543323	0.000276742
0.00223473	-0.00539839	0.000276493
0.00216076	-0.00534928	0.000276132
0.00208687	-0.00528578	0.000275653
0.00289926	-0.00538746	0.000314602
0.00281113	-0.00545225	0.000315323
0.00272289	-0.00550245	0.000315862
0.00263453	-0.00553825	0.000316232
0.00254606	-0.00555982	0.000316446
0.00245754	-0.00556727	0.000316516
0.00236902	-0.00556063	0.000316444
0.00228056	-0.00553987	0.000316228
0.00219219	-0.00550488	0.000315856
0.00210396	-0.0054555	0.000315315
0.00201584	-0.00539153	0.000314591
0.00297182	-0.00549967	0.000355286
0.00286932	-0.00556509	0.000356249
0.00276667	-0.00561565	0.000356959
0.00266386	-0.00565165	0.000357439
0.00256094	-0.00567332	0.000357715
0.00245795	-0.0056808	0.000357806
0.00235496	-0.00567414	0.000357713
0.00225204	-0.00565328	0.000357434
0.00214924	-0.00561809	0.000356952
0.00204659	-0.00556835	0.00035624
0.00194409	-0.00550375	0.000355273
0.00304525	-0.00561987	0.000398003
0.00292819	-0.00568601	0.000399206
0.00281092	-0.00573699	0.000400073
0.0026935	-0.00577323	0.000400646
0.00257596	-0.00579501	0.00040097
0.00245836	-0.00580252	0.000401075
0.00234076	-0.00579582	0.000400968
0.00222322	-0.00577485	0.000400642
0.0021058	-0.00573943	0.000400065
0.00198854	-0.00568926	0.000399196
0.00187148	-0.00562394	0.000397989
0.00311964	-0.00574971	0.00044311
0.00298774	-0.00581662	0.000444548
0.00285565	-0.00586807	0.000445542
0.00272341	-0.00590456	0.000446175
0.0025911	-0.00592647	0.000446523
0.00245877	-0.00593402	0.000446633
0.00232644	-0.00592728	0.000446521
0.00219413	-0.00590618	0.000446171
0.00206189	-0.00587051	0.000445535
0.0019298	-0.00581988	0.000444537
0.00179791	-0.00575378	0.000443095
0.00319495	-0.00589108	0.000491068
0.00304796	-0.00595882	0.000492718
0.00290071	-0.00601071	0.000493766
0.00275345	-0.00604747	0.000494396
0.00260628	-0.00606954	0.000494732
0.00245918	-0.00607714	0.000494837
0.00231207	-0.00607035	0.00049473
0.0021649	-0.00604909	0.000494392
0.00201765	-0.00601315	0.000493759
0.0018704	-0.00596207	0.000492709
0.00172341	-0.00589514	0.000491053
0.00327162	-0.00604611	0.000542582
0.0031085	-0.00611464	0.00054426
0.00294569	-0.00616702	0.000545194
0.00278334	-0.00620414	0.000545733
0.00262136	-0.00622642	0.000546011
0.00245958	-0.00623409	0.000546097
0.00229781	-0.00622723	0.000546009
0.00213583	-0.00620576	0.00054573
0.00197348	-0.00616946	0.000545189
0.00181068	-0.00611788	0.000544252
0.00164756	-0.00605017	0.000542568
0.0012001	-0.0038138	-0.00148434
0.0013804	-0.00386283	-0.00167144
0.00161613	-0.00394263	-0.00170364
0.00189265	-0.00399194	-0.00169675
0.00217246	-0.00401969	-0.00169031
0.00245003	-0.00402875	-0.0016879
0.0027276	-0.00402024	-0.00169037
0.00300742	-0.00399303	-0.00169687
0.00328396	-0.00394427	-0.0017038
0.00351971	-0.00386504	-0.00167162
0.00369997	-0.0038166	-0.00148442
0.0012145	-0.00367777	-0.000768292
0.00144368	-0.00376614	-0.000943085
0.0016787	-0.00384352	-0.000987633
0.00193305	-0.00389198	-0.000987387
0.00219202	-0.00391737	-0.0009824
0.0024503	-0.00392561	-0.000980232
0.00270859	-0.00391792	-0.00098238
0.00296758	-0.00389309	-0.000987343
0.00322195	-0.0038452	-0.000987559
0.003457	-0.0037684	-0.000942955
0.00368622	-0.00368063	-0.000768054
0.00131747	-0.00358469	-0.000476163
0.00152547	-0.00368685	-0.00059914
0.00174903	-0.00375815	-0.000639044
0.00198103	-0.00380274	-0.000646329
0.00221565	-0.00382632	-0.000645387
0.0024506	-0.00383389	-0.000644424
0.00268555	-0.00382688	-0.000645339
0.00292019	-0.00380387	-0.00064623
0.00315222	-0.00375985	-0.00063889
0.00337581	-0.00368915	-0.000598921
0.00358385	-0.0035876	-0.000475857
0.0014355	-0.00365927	-0.000398122
0.00162807	-0.00376699	-0.000483418
0.00182809	-0.00383823	-0.000517907
0.00203378	-0.00388179	-0.00052939
0.00224194	-0.00390534	-0.000532199
0.00245092	-0.00391295	-0.000532556
0.0026599	-0.00390593	-0.000532153
0.00286807	-0.00388298	-0.000529296
0.00307379	-0.00384003	-0.000517765
0.00327384	-0.0037694	-0.000483222
0.00346646	-0.00366232	-0.000397869
0.00156514	-0.00379144	-0.000352931
0.00173427	-0.00389724	-0.000410757
0.0019087	-0.00396773	-0.000438747
0.0020874	-0.0040119	-0.000450939
0.00226876	-0.00403614	-0.000455543
0.00245126	-0.00404406	-0.000456658
0.00263376	-0.00403677	-0.000455503
0.00281513	-0.00401316	-0.000450859
0.00299385	-0.00396963	-0.000438626
0.00316831	-0.00389979	-0.000410596
0.00333747	-0.00379466	-0.00035273
0.00168757	-0.00393428	-0.000311813
0.00183462	-0.00403395	-0.000351435
0.00198491	-0.00410289	-0.000373325
0.00213851	-0.00414742	-0.000384494
0.00229447	-0.0041724	-0.000389522
0.00245161	-0.00418064	-0.000390924
0.00260875	-0.00417306	-0.000389489
0.00276472	-0.00414874	-0.000384428
0.00291834	-0.00410487	-0.000373227
0.00306866	-0.00403661	-0.000351305
0.00321574	-0.00393764	-0.000311655
0.00179993	-0.00407187	-0.000266975
0.00192638	-0.0041646	-0.000294572
0.00205485	-0.00423107	-0.000311355
0.00218566	-0.00427532	-0.00032085
0.00231832	-0.00430064	-0.000325559
0.00245197	-0.00430908	-0.000326958
0.00258563	-0.00430133	-0.000325532
0.0027183	-0.00427669	-0.000320796
0.00284912	-0.00423314	-0.000311275
0.00297761	-0.00416737	-0.000294469
0.00310408	-0.00407536	-0.00026685
0.00190272	-0.00419984	-0.000217795
0.00201005	-0.00428614	-0.000237356
0.00211859	-0.00434976	-0.000250119
0.00222871	-0.00439314	-0.000257864
0.00234015	-0.00441839	-0.000261947
0.00245235	-0.00442688	-0.000263204