# vtk DataFile Version 4.1
vtk output
ASCII
DATASET UNSTRUCTURED_GRID

POINTS	7401	float
0	0	0.0	
0	1	0.0	
0	2	0.0	
0	3	0.0	
0	4	0.0	
0	5	0.0	
0	6	0.0	
0	7	0.0	
0	8	0.0	
0	9	0.0	
0	10	0.0	
0	11	0.0	
0	12	0.0	
0	13	0.0	
0	14	0.0	
0	15	0.0	
0	16	0.0	
0	17	0.0	
0	18	0.0	
0	19	0.0	
0	20	0.0	
0	21	0.0	
0	22	0.0	
0	23	0.0	
0	24	0.0	
0	25	0.0	
0	26	0.0	
0	27	0.0	
0	28	0.0	
0	29	0.0	
0	30	0.0	
0	31	0.0	
0	32	0.0	
0	33	0.0	
0	34	0.0	
0	35	0.0	
0	36	0.0	
0	37	0.0	
0	38	0.0	
0	39	0.0	
0	40	0.0	
1	0	0.0	
1	1	0.0	
1	2	0.0	
1	3	0.0	
1	4	0.0	
1	5	0.0	
1	6	0.0	
1	7	0.0	
1	8	0.0	
1	9	0.0	
1	10	0.0	
1	11	0.0	
1	12	0.0	
1	13	0.0	
1	14	0.0	
1	15	0.0	
1	16	0.0	
1	17	0.0	
1	18	0.0	
1	19	0.0	
1	20	0.0	
1	21	0.0	
1	22	0.0	
1	23	0.0	
1	24	0.0	
1	25	0.0	
1	26	0.0	
1	27	0.0	
1	28	0.0	
1	29	0.0	
1	30	0.0	
1	31	0.0	
1	32	0.0	
1	33	0.0	
1	34	0.0	
1	35	0.0	
1	36	0.0	
1	37	0.0	
1	38	0.0	
1	39	0.0	
1	40	0.0	
2	0	0.0	
2	1	0.0	
2	2	0.0	
2	3	0.0	
2	4	0.0	
2	5	0.0	
2	6	0.0	
2	7	0.0	
2	8	0.0	
2	9	0.0	
2	10	0.0	
2	11	0.0	
2	12	0.0	
2	13	0.0	
2	14	0.0	
2	15	0.0	
2	16	0.0	
2	17	0.0	
2	18	0.0	
2	19	0.0	
2	20	0.0	
2	21	0.0	
2	22	0.0	
2	23	0.0	
2	24	0.0	
2	25	0.0	
2	26	0.0	
2	27	0.0	
2	28	0.0	
2	29	0.0	
2	30	0.0	
2	31	0.0	
2	32	0.0	
2	33	0.0	
2	34	0.0	
2	35	0.0	
2	36	0.0	
2	37	0.0	
2	38	0.0	
2	39	0.0	
2	40	0.0	
3	0	0.0	
3	1	0.0	
3	2	0.0	
3	3	0.0	
3	4	0.0	
3	5	0.0	
3	6	0.0	
3	7	0.0	
3	8	0.0	
3	9	0.0	
3	10	0.0	
3	11	0.0	
3	12	0.0	
3	13	0.0	
3	14	0.0	
3	15	0.0	
3	16	0.0	
3	17	0.0	
3	18	0.0	
3	19	0.0	
3	20	0.0	
3	21	0.0	
3	22	0.0	
3	23	0.0	
3	24	0.0	
3	25	0.0	
3	26	0.0	
3	27	0.0	
3	28	0.0	
3	29	0.0	
3	30	0.0	
3	31	0.0	
3	32	0.0	
3	33	0.0	
3	34	0.0	
3	35	0.0	
3	36	0.0	
3	37	0.0	
3	38	0.0	
3	39	0.0	
3	40	0.0	
4	0	0.0	
4	1	0.0	
4	2	0.0	
4	3	0.0	
4	4	0.0	
4	5	0.0	
4	6	0.0	
4	7	0.0	
4	8	0.0	
4	9	0.0	
4	10	0.0	
4	11	0.0	
4	12	0.0	
4	13	0.0	
4	14	0.0	
4	15	0.0	
4	16	0.0	
4	17	0.0	
4	18	0.0	
4	19	0.0	
4	20	0.0	
4	21	0.0	
4	22	0.0	
4	23	0.0	
4	24	0.0	
4	25	0.0	
4	26	0.0	
4	27	0.0	
4	28	0.0	
4	29	0.0	
4	30	0.0	
4	31	0.0	
4	32	0.0	
4	33	0.0	
4	34	0.0	
4	35	0.0	
4	36	0.0	
4	37	0.0	
4	38	0.0	
4	39	0.0	
4	40	0.0	
5	0	0.0	
5	1	0.0	
5	2	0.0	
5	3	0.0	
5	4	0.0	
5	5	0.0	
5	6	0.0	
5	7	0.0	
5	8	0.0	
5	9	0.0	
5	10	0.0	
5	11	0.0	
5	12	0.0	
5	13	0.0	
5	14	0.0	
5	15	0.0	
5	16	0.0	
5	17	0.0	
5	18	0.0	
5	19	0.0	
5	20	0.0	
5	21	0.0	
5	22	0.0	
5	23	0.0	
5	24	0.0	
5	25	0.0	
5	26	0.0	
5	27	0.0	
5	28	0.0	
5	29	0.0	
5	30	0.0	
5	31	0.0	
5	32	0.0	
5	33	0.0	
5	34	0.0	
5	35	0.0	
5	36	0.0	
5	37	0.0	
5	38	0.0	
5	39	0.0	
5	40	0.0	
6	0	0.0	
6	1	0.0	
6	2	0.0	
6	3	0.0	
6	4	0.0	
6	5	0.0	
6	6	0.0	
6	7	0.0	
6	8	0.0	
6	9	0.0	
6	10	0.0	
6	11	0.0	
6	12	0.0	
6	13	0.0	
6	14	0.0	
6	15	0.0	
6	16	0.0	
6	17	0.0	
6	18	0.0	
6	19	0.0	
6	20	0.0	
6	21	0.0	
6	22	0.0	
6	23	0.0	
6	24	0.0	
6	25	0.0	
6	26	0.0	
6	27	0.0	
6	28	0.0	
6	29	0.0	
6	30	0.0	
6	31	0.0	
6	32	0.0	
6	33	0.0	
6	34	0.0	
6	35	0.0	
6	36	0.0	
6	37	0.0	
6	38	0.0	
6	39	0.0	
6	40	0.0	
7	0	0.0	
7	1	0.0	
7	2	0.0	
7	3	0.0	
7	4	0.0	
7	5	0.0	
7	6	0.0	
7	7	0.0	
7	8	0.0	
7	9	0.0	
7	10	0.0	
7	11	0.0	
7	12	0.0	
7	13	0.0	
7	14	0.0	
7	15	0.0	
7	16	0.0	
7	17	0.0	
7	18	0.0	
7	19	0.0	
7	20	0.0	
7	21	0.0	
7	22	0.0	
7	23	0.0	
7	24	0.0	
7	25	0.0	
7	26	0.0	
7	27	0.0	
7	28	0.0	
7	29	0.0	
7	30	0.0	
7	31	0.0	
7	32	0.0	
7	33	0.0	
7	34	0.0	
7	35	0.0	
7	36	0.0	
7	37	0.0	
7	38	0.0	
7	39	0.0	
7	40	0.0	
8	0	0.0	
8	1	0.0	
8	2	0.0	
8	3	0.0	
8	4	0.0	
8	5	0.0	
8	6	0.0	
8	7	0.0	
8	8	0.0	
8	9	0.0	
8	10	0.0	
8	11	0.0	
8	12	0.0	
8	13	0.0	
8	14	0.0	
8	15	0.0	
8	16	0.0	
8	17	0.0	
8	18	0.0	
8	19	0.0	
8	20	0.0	
8	21	0.0	
8	22	0.0	
8	23	0.0	
8	24	0.0	
8	25	0.0	
8	26	0.0	
8	27	0.0	
8	28	0.0	
8	29	0.0	
8	30	0.0	
8	31	0.0	
8	32	0.0	
8	33	0.0	
8	34	0.0	
8	35	0.0	
8	36	0.0	
8	37	0.0	
8	38	0.0	
8	39	0.0	
8	40	0.0	
9	0	0.0	
9	1	0.0	
9	2	0.0	
9	3	0.0	
9	4	0.0	
9	5	0.0	
9	6	0.0	
9	7	0.0	
9	8	0.0	
9	9	0.0	
9	10	0.0	
9	11	0.0	
9	12	0.0	
9	13	0.0	
9	14	0.0	
9	15	0.0	
9	16	0.0	
9	17	0.0	
9	18	0.0	
9	19	0.0	
9	20	0.0	
9	21	0.0	
9	22	0.0	
9	23	0.0	
9	24	0.0	
9	25	0.0	
9	26	0.0	
9	27	0.0	
9	28	0.0	
9	29	0.0	
9	30	0.0	
9	31	0.0	
9	32	0.0	
9	33	0.0	
9	34	0.0	
9	35	0.0	
9	36	0.0	
9	37	0.0	
9	38	0.0	
9	39	0.0	
9	40	0.0	
10	0	0.0	
10	1	0.0	
10	2	0.0	
10	3	0.0	
10	4	0.0	
10	5	0.0	
10	6	0.0	
10	7	0.0	
10	8	0.0	
10	9	0.0	
10	10	0.0	
10	11	0.0	
10	12	0.0	
10	13	0.0	
10	14	0.0	
10	15	0.0	
10	16	0.0	
10	17	0.0	
10	18	0.0	
10	19	0.0	
10	20	0.0	
10	21	0.0	
10	22	0.0	
10	23	0.0	
10	24	0.0	
10	25	0.0	
10	26	0.0	
10	27	0.0	
10	28	0.0	
10	29	0.0	
10	30	0.0	
10	31	0.0	
10	32	0.0	
10	33	0.0	
10	34	0.0	
10	35	0.0	
10	36	0.0	
10	37	0.0	
10	38	0.0	
10	39	0.0	
10	40	0.0	
11	0	0.0	
11	1	0.0	
11	2	0.0	
11	3	0.0	
11	4	0.0	
11	5	0.0	
11	6	0.0	
11	7	0.0	
11	8	0.0	
11	9	0.0	
11	10	0.0	
11	11	0.0	
11	12	0.0	
11	13	0.0	
11	14	0.0	
11	15	0.0	
11	16	0.0	
11	17	0.0	
11	18	0.0	
11	19	0.0	
11	20	0.0	
11	21	0.0	
11	22	0.0	
11	23	0.0	
11	24	0.0	
11	25	0.0	
11	26	0.0	
11	27	0.0	
11	28	0.0	
11	29	0.0	
11	30	0.0	
11	31	0.0	
11	32	0.0	
11	33	0.0	
11	34	0.0	
11	35	0.0	
11	36	0.0	
11	37	0.0	
11	38	0.0	
11	39	0.0	
11	40	0.0	
12	0	0.0	
12	1	0.0	
12	2	0.0	
12	3	0.0	
12	4	0.0	
12	5	0.0	
12	6	0.0	
12	7	0.0	
12	8	0.0	
12	9	0.0	
12	10	0.0	
12	11	0.0	
12	12	0.0	
12	13	0.0	
12	14	0.0	
12	15	0.0	
12	16	0.0	
12	17	0.0	
12	18	0.0	
12	19	0.0	
12	20	0.0	
12	21	0.0	
12	22	0.0	
12	23	0.0	
12	24	0.0	
12	25	0.0	
12	26	0.0	
12	27	0.0	
12	28	0.0	
12	29	0.0	
12	30	0.0	
12	31	0.0	
12	32	0.0	
12	33	0.0	
12	34	0.0	
12	35	0.0	
12	36	0.0	
12	37	0.0	
12	38	0.0	
12	39	0.0	
12	40	0.0	
13	0	0.0	
13	1	0.0	
13	2	0.0	
13	3	0.0	
13	4	0.0	
13	5	0.0	
13	6	0.0	
13	7	0.0	
13	8	0.0	
13	9	0.0	
13	10	0.0	
13	11	0.0	
13	12	0.0	
13	13	0.0	
13	14	0.0	
13	15	0.0	
13	16	0.0	
13	17	0.0	
13	18	0.0	
13	19	0.0	
13	20	0.0	
13	21	0.0	
13	22	0.0	
13	23	0.0	
13	24	0.0	
13	25	0.0	
13	26	0.0	
13	27	0.0	
13	28	0.0	
13	29	0.0	
13	30	0.0	
13	31	0.0	
13	32	0.0	
13	33	0.0	
13	34	0.0	
13	35	0.0	
13	36	0.0	
13	37	0.0	
13	38	0.0	
13	39	0.0	
13	40	0.0	
14	0	0.0	
14	1	0.0	
14	2	0.0	
14	3	0.0	
14	4	0.0	
14	5	0.0	
14	6	0.0	
14	7	0.0	
14	8	0.0	
14	9	0.0	
14	10	0.0	
14	11	0.0	
14	12	0.0	
14	13	0.0	
14	14	0.0	
14	15	0.0	
14	16	0.0	
14	17	0.0	
14	18	0.0	
14	19	0.0	
14	20	0.0	
14	21	0.0	
14	22	0.0	
14	23	0.0	
14	24	0.0	
14	25	0.0	
14	26	0.0	
14	27	0.0	
14	28	0.0	
14	29	0.0	
14	30	0.0	
14	31	0.0	
14	32	0.0	
14	33	0.0	
14	34	0.0	
14	35	0.0	
14	36	0.0	
14	37	0.0	
14	38	0.0	
14	39	0.0	
14	40	0.0	
15	0	0.0	
15	1	0.0	
15	2	0.0	
15	3	0.0	
15	4	0.0	
15	5	0.0	
15	6	0.0	
15	7	0.0	
15	8	0.0	
15	9	0.0	
15	10	0.0	
15	11	0.0	
15	12	0.0	
15	13	0.0	
15	14	0.0	
15	15	0.0	
15	16	0.0	
15	17	0.0	
15	18	0.0	
15	19	0.0	
15	20	0.0	
15	21	0.0	
15	22	0.0	
15	23	0.0	
15	24	0.0	
15	25	0.0	
15	26	0.0	
15	27	0.0	
15	28	0.0	
15	29	0.0	
15	30	0.0	
15	31	0.0	
15	32	0.0	
15	33	0.0	
15	34	0.0	
15	35	0.0	
15	36	0.0	
15	37	0.0	
15	38	0.0	
15	39	0.0	
15	40	0.0	
16	0	0.0	
16	1	0.0	
16	2	0.0	
16	3	0.0	
16	4	0.0	
16	5	0.0	
16	6	0.0	
16	7	0.0	
16	8	0.0	
16	9	0.0	
16	10	0.0	
16	11	0.0	
16	12	0.0	
16	13	0.0	
16	14	0.0	
16	15	0.0	
16	16	0.0	
16	17	0.0	
16	18	0.0	
16	19	0.0	
16	20	0.0	
16	21	0.0	
16	22	0.0	
16	23	0.0	
16	24	0.0	
16	25	0.0	
16	26	0.0	
16	27	0.0	
16	28	0.0	
16	29	0.0	
16	30	0.0	
16	31	0.0	
16	32	0.0	
16	33	0.0	
16	34	0.0	
16	35	0.0	
16	36	0.0	
16	37	0.0	
16	38	0.0	
16	39	0.0	
16	40	0.0	
17	0	0.0	
17	1	0.0	
17	2	0.0	
17	3	0.0	
17	4	0.0	
17	5	0.0	
17	6	0.0	
17	7	0.0	
17	8	0.0	
17	9	0.0	
17	10	0.0	
17	11	0.0	
17	12	0.0	
17	13	0.0	
17	14	0.0	
17	15	0.0	
17	16	0.0	
17	17	0.0	
17	18	0.0	
17	19	0.0	
17	20	0.0	
17	21	0.0	
17	22	0.0	
17	23	0.0	
17	24	0.0	
17	25	0.0	
17	26	0.0	
17	27	0.0	
17	28	0.0	
17	29	0.0	
17	30	0.0	
17	31	0.0	
17	32	0.0	
17	33	0.0	
17	34	0.0	
17	35	0.0	
17	36	0.0	
17	37	0.0	
17	38	0.0	
17	39	0.0	
17	40	0.0	
18	0	0.0	
18	1	0.0	
18	2	0.0	
18	3	0.0	
18	4	0.0	
18	5	0.0	
18	6	0.0	
18	7	0.0	
18	8	0.0	
18	9	0.0	
18	10	0.0	
18	11	0.0	
18	12	0.0	
18	13	0.0	
18	14	0.0	
18	15	0.0	
18	16	0.0	
18	17	0.0	
18	18	0.0	
18	19	0.0	
18	20	0.0	
18	21	0.0	
18	22	0.0	
18	23	0.0	
18	24	0.0	
18	25	0.0	
18	26	0.0	
18	27	0.0	
18	28	0.0	
18	29	0.0	
18	30	0.0	
18	31	0.0	
18	32	0.0	
18	33	0.0	
18	34	0.0	
18	35	0.0	
18	36	0.0	
18	37	0.0	
18	38	0.0	
18	39	0.0	
18	40	0.0	
19	0	0.0	
19	1	0.0	
19	2	0.0	
19	3	0.0	
19	4	0.0	
19	5	0.0	
19	6	0.0	
19	7	0.0	
19	8	0.0	
19	9	0.0	
19	10	0.0	
19	11	0.0	
19	12	0.0	
19	13	0.0	
19	14	0.0	
19	15	0.0	
19	16	0.0	
19	17	0.0	
19	18	0.0	
19	19	0.0	
19	20	0.0	
19	21	0.0	
19	22	0.0	
19	23	0.0	
19	24	0.0	
19	25	0.0	
19	26	0.0	
19	27	0.0	
19	28	0.0	
19	29	0.0	
19	30	0.0	
19	31	0.0	
19	32	0.0	
19	33	0.0	
19	34	0.0	
19	35	0.0	
19	36	0.0	
19	37	0.0	
19	38	0.0	
19	39	0.0	
19	40	0.0	
20	0	0.0	
20	1	0.0	
20	2	0.0	
20	3	0.0	
20	4	0.0	
20	5	0.0	
20	6	0.0	
20	7	0.0	
20	8	0.0	
20	9	0.0	
20	10	0.0	
20	11	0.0	
20	12	0.0	
20	13	0.0	
20	14	0.0	
20	15	0.0	
20	16	0.0	
20	17	0.0	
20	18	0.0	
20	19	0.0	
20	20	0.0	
20	21	0.0	
20	22	0.0	
20	23	0.0	
20	24	0.0	
20	25	0.0	
20	26	0.0	
20	27	0.0	
20	28	0.0	
20	29	0.0	
20	30	0.0	
20	31	0.0	
20	32	0.0	
20	33	0.0	
20	34	0.0	
20	35	0.0	
20	36	0.0	
20	37	0.0	
20	38	0.0	
20	39	0.0	
20	40	0.0	
21	0	0.0	
21	1	0.0	
21	2	0.0	
21	3	0.0	
21	4	0.0	
21	5	0.0	
21	6	0.0	
21	7	0.0	
21	8	0.0	
21	9	0.0	
21	10	0.0	
21	11	0.0	
21	12	0.0	
21	13	0.0	
21	14	0.0	
21	15	0.0	
21	16	0.0	
21	17	0.0	
21	18	0.0	
21	19	0.0	
21	20	0.0	
21	21	0.0	
21	22	0.0	
21	23	0.0	
21	24	0.0	
21	25	0.0	
21	26	0.0	
21	27	0.0	
21	28	0.0	
21	29	0.0	
21	30	0.0	
21	31	0.0	
21	32	0.0	
21	33	0.0	
21	34	0.0	
21	35	0.0	
21	36	0.0	
21	37	0.0	
21	38	0.0	
21	39	0.0	
21	40	0.0	
22	0	0.0	
22	1	0.0	
22	2	0.0	
22	3	0.0	
22	4	0.0	
22	5	0.0	
22	6	0.0	
22	7	0.0	
22	8	0.0	
22	9	0.0	
22	10	0.0	
22	11	0.0	
22	12	0.0	
22	13	0.0	
22	14	0.0	
22	15	0.0	
22	16	0.0	
22	17	0.0	
22	18	0.0	
22	19	0.0	
22	20	0.0	
22	21	0.0	
22	22	0.0	
22	23	0.0	
22	24	0.0	
22	25	0.0	
22	26	0.0	
22	27	0.0	
22	28	0.0	
22	29	0.0	
22	30	0.0	
22	31	0.0	
22	32	0.0	
22	33	0.0	
22	34	0.0	
22	35	0.0	
22	36	0.0	
22	37	0.0	
22	38	0.0	
22	39	0.0	
22	40	0.0	
23	0	0.0	
23	1	0.0	
23	2	0.0	
23	3	0.0	
23	4	0.0	
23	5	0.0	
23	6	0.0	
23	7	0.0	
23	8	0.0	
23	9	0.0	
23	10	0.0	
23	11	0.0	
23	12	0.0	
23	13	0.0	
23	14	0.0	
23	15	0.0	
23	16	0.0	
[...]
POINT_DATA	7401
VECTORS u0 float
0	0	0
0	0	0
0	0	0
0	0	0
0	0	0
0	0	0
0	0	0
0	0	0
0	0	0
0	0	0
0	0	0
0	0	0
0	0	0
0	0	0
0	0	0
0	0	0
0	0	0
0	0	0
0	0	0
0	0	0
0	0	0
0	0	0
0	0	0
0	0	0
0	0	0
0	0	0
0	0	0
0	0	0
0	0	0
0	0	0
0	0	0
0	0	0
0	0	0
0	0	0
0	0	0
0	0	0
0	0	0
0	0	0
0	0	0
0	0	0
0	0	0
-9.2307	-2.6461	0
-5.90215	-3.26737	0
-4.15374	-3.72385	0
-2.99964	-4.04271	0
-2.17509	-4.30332	0
-1.56147	-4.52605	0
-1.09556	-4.7205	0
-0.738946	-4.89181	0
-0.466342	-5.04322	0
-0.259998	-5.17703	0
-0.106856	-5.29497	0
0.0030659	-5.39842	0
0.0776422	-5.48849	0
0.123261	-5.5661	0
0.145232	-5.63198	0
0.148073	-5.68677	0
0.135715	-5.73095	0
0.111652	-5.76491	0
0.0790632	-5.78897	0
0.0409066	-5.80331	0
-9.48532e-10	-5.80808	0
-0.0409066	-5.80331	0
-0.0790632	-5.78897	0
-0.111652	-5.76491	0
-0.135715	-5.73095	0
-0.148073	-5.68677	0
-0.145232	-5.63198	0
-0.123261	-5.5661	0
-0.0776422	-5.48849	0
-0.00306591	-5.39842	0
0.106856	-5.29497	0
0.259998	-5.17703	0
0.466342	-5.04322	0
0.738946	-4.89181	0
1.09556	-4.7205	0
1.56147	-4.52605	0
2.17509	-4.30332	0
2.99964	-4.04271	0
4.15374	-3.72385	0
5.90215	-3.26737	0
9.2307	-2.6461	0
-12.3851	-7.71428	0
-8.59966	-7.65611	0
-6.12787	-7.79499	0
-4.43401	-8.05715	0
-3.20398	-8.34212	0
-2.28186	-8.621	0
-1.57963	-8.88356	0
-1.04199	-9.12606	0
-0.631756	-9.34736	0
-0.322461	-9.54746	0
-0.0944613	-9.72686	0
0.0673568	-9.88628	0
0.174973	-10.0265	0
0.238138	-10.1482	0
0.264975	-10.2523	0
0.262408	-10.3392	0
0.236471	-10.4096	0
0.192531	-10.4638	0
0.135475	-10.5023	0
0.0698534	-10.5253	0
-1.48475e-09	-10.533	0
-0.0698534	-10.5253	0
-0.135475	-10.5023	0
-0.192531	-10.4638	0
-0.236471	-10.4096	0
-0.262408	-10.3392	0
-0.264975	-10.2523	0
-0.238138	-10.1482	0
-0.174973	-10.0265	0
-0.0673568	-9.88628	0
0.0944613	-9.72686	0
0.322461	-9.54746	0
0.631756	-9.34736	0
1.04199	-9.12606	0
1.57963	-8.88356	0
2.28186	-8.621	0
3.20398	-8.34212	0
4.43401	-8.05715	0
6.12787	-7.79499	0
8.59966	-7.65611	0
12.3851	-7.71428	0
-15.4507	-12.3943	0
-11.2115	-12.4242	0
-8.14262	-12.5236	0
-5.91224	-12.7093	0
-4.25722	-12.9552	0
-3.006	-13.2278	0
-2.04992	-13.5053	0
-1.31767	-13.7752	0
-0.759965	-14.0304	0
-0.341212	-14.2673	0
-0.0347185	-14.4839	0
0.180191	-14.6792	0
0.319984	-14.853	0
0.398108	-15.0053	0
0.425797	-15.1364	0
0.412644	-15.2465	0
0.367014	-15.336	0
0.296362	-15.4053	0
0.207476	-15.4546	0
0.10668	-15.4841	0
-2.09786e-09	-15.4939	0
-0.10668	-15.4841	0
-0.207476	-15.4546	0
-0.296362	-15.4053	0
-0.367014	-15.336	0
-0.412644	-15.2465	0
-0.425797	-15.1364	0
-0.398108	-15.0053	0
-0.319984	-14.853	0
-0.180191	-14.6792	0
0.0347185	-14.4839	0
0.341212	-14.2673	0
0.759965	-14.0304	0
1.31767	-13.7752	0
2.04992	-13.5053	0
3.006	-13.2278	0
4.25722	-12.9552	0
5.91224	-12.7093	0
8.14262	-12.5236	0
11.2115	-12.4242	0
15.4507	-12.3943	0
-17.6395	-17.4199	0
-13.149	-17.4206	0
-9.70465	-17.4702	0
-7.08735	-17.5948	0
-5.09338	-17.7844	0
-3.56512	-18.0164	0
-2.38994	-18.27	0
-1.48805	-18.5296	0
-0.80184	-18.7846	0
-0.288605	-19.0281	0
0.0842222	-19.2554	0
0.34214	-19.4639	0
0.50561	-19.6518	0
0.591423	-19.8183	0
0.613659	-19.9627	0
0.584372	-20.0848	0
0.514094	-20.1846	0
0.412223	-20.2621	0
0.287323	-20.3173	0
0.147378	-20.3505	0
-2.69725e-09	-20.3615	0
-0.147378	-20.3505	0
-0.287323	-20.3173	0
-0.412223	-20.2621	0
-0.514094	-20.1846	0
-0.584372	-20.0848	0
-0.613659	-19.9627	0
-0.591423	-19.8183	0
-0.50561	-19.6518	0
-0.34214	-19.4639	0
-0.0842222	-19.2554	0
0.288605	-19.0281	0
0.80184	-18.7846	0
1.48805	-18.5296	0
2.38994	-18.27	0
3.56512	-18.0164	0
5.09338	-17.7844	0
7.08735	-17.5948	0
9.70465	-17.4702	0
13.149	-17.4206	0
17.6395	-17.4199	0
-19.2168	-22.5476	0
-14.5703	-22.5468	0
-10.8802	-22.5732	0
-7.98532	-22.6527	0
-5.7274	-22.7887	0
-3.97105	-22.9705	0
-2.60926	-23.1827	0
-1.56035	-23.411	0
-0.762274	-23.6439	0
-0.16743	-23.8728	0
0.261328	-24.0916	0
0.55354	-24.2958	0
0.733167	-24.4825	0
0.820021	-24.6498	0
0.830805	-24.7962	0
0.779873	-24.921	0
0.679801	-25.0235	0
0.541835	-25.1034	0
0.376236	-25.1606	0
0.192579	-25.195	0
-3.29741e-09	-25.2065	0
-0.192579	-25.195	0
-0.376236	-25.1606	0
-0.541835	-25.1034	0
-0.679801	-25.0235	0
-0.779873	-24.921	0
-0.830805	-24.7962	0
-0.820021	-24.6498	0
-0.733167	-24.4825	0
-0.55354	-24.2958	0
-0.261328	-24.0916	0
0.16743	-23.8728	0
0.762274	-23.6439	0
1.56035	-23.411	0
2.60926	-23.1827	0
3.97105	-22.9705	0
5.7274	-22.7887	0
7.98532	-22.6527	0
10.8802	-22.5732	0
14.5703	-22.5468	0
19.2168	-22.5476	0
-20.2237	-27.7387	0
-15.5022	-27.7326	0
-11.6623	-27.739	0
-8.58076	-27.7824	0
-6.13198	-27.8715	0
-4.20118	-28.0028	0
-2.69117	-28.167	0
-1.52298	-28.3529	0
-0.633604	-28.5502	0
0.0271174	-28.7503	0
0.499382	-28.9462	0
0.815779	-29.1327	0
1.00311	-29.3059	0
1.08377	-29.463	0
1.07676	-29.602	0
0.998515	-29.7213	0
0.863487	-29.82	0
0.684632	-29.8973	0
0.473801	-29.9528	0
0.242066	-29.9862	0
-3.8921e-09	-29.9974	0
-0.242066	-29.9862	0
-0.473801	-29.9528	0
-0.684632	-29.8973	0
-0.863487	-29.82	0
-0.998515	-29.7213	0
-1.07676	-29.602	0
-1.08377	-29.463	0
-1.00311	-29.3059	0
-0.815779	-29.1327	0
-0.499382	-28.9462	0
-0.0271174	-28.7503	0
0.633604	-28.5502	0
1.52298	-28.3529	0
2.69117	-28.167	0
4.20118	-28.0028	0
6.13198	-27.8715	0
8.58076	-27.7824	0
11.6623	-27.739	0
15.5022	-27.7326	0
20.2237	-27.7387	0
-20.7172	-32.9289	0
-15.9823	-32.9191	0
-12.0668	-32.91	0
-8.87244	-32.9242	0
-6.29695	-32.9725	0
-4.24313	-33.0567	0
-2.62439	-33.1722	0
-1.36685	-33.3115	0
-0.408947	-33.4663	0
0.300047	-33.6289	0
0.80193	-33.7926	0
1.1313	-33.9519	0
1.31709	-34.1026	0
1.38374	-34.2412	0
1.3522	-34.3652	0
1.24071	-34.4727	0
1.06539	-34.5622	0
0.840745	-34.6327	0
0.580083	-34.6835	0
0.295864	-34.7142	0
-4.48115e-09	-34.7245	0
-0.295864	-34.7142	0
-0.580083	-34.6835	0
-0.840745	-34.6327	0
-1.06539	-34.5622	0
-1.24071	-34.4727	0
-1.3522	-34.3652	0
-1.38374	-34.2412	0
-1.31709	-34.1026	0
-1.1313	-33.9519	0
-0.80193	-33.7926	0
-0.300047	-33.6289	0
0.408947	-33.4663	0
1.36685	-33.3115	0
2.62439	-33.1722	0
4.24313	-33.0567	0
6.29695	-32.9725	0
8.87244	-32.9242	0
12.0668	-32.91	0
15.9823	-32.9191	0
20.7172	-32.9289	0
-20.738	-38.0714	0
-16.0408	-38.0581	0
-12.1094	-38.0359	0
-8.86307	-38.0253	0
-6.21693	-38.0384	0
-4.08789	-38.0798	0
-2.39931	-38.1488	0
-1.08327	-38.241	0
-0.0811303	-38.3506	0
0.65697	-38.4714	0
1.17319	-38.5974	0
1.5032	-38.7235	0
1.6773	-38.8454	0
1.72146	-38.9595	0
1.65816	-39.0631	0
1.50713	-39.1538	0
1.28593	-39.23	0
1.01042	-39.2905	0
0.695215	-39.3343	0
0.354032	-39.3608	0
-5.06029e-09	-39.3696	0
-0.354032	-39.3608	0
-0.695215	-39.3343	0
-1.01042	-39.2905	0
-1.28593	-39.23	0
-1.50713	-39.1538	0
-1.65816	-39.0631	0
-1.72146	-38.9595	0
-1.6773	-38.8454	0
-1.5032	-38.7235	0
-1.17319	-38.5974	0
-0.65697	-38.4714	0
0.0811303	-38.3506	0
1.08327	-38.241	0
2.39931	-38.1488	0
4.08789	-38.0798	0
6.21693	-38.0384	0
8.86307	-38.0253	0
12.1094	-38.0359	0
16.0408	-38.0581	0
20.738	-38.0714	0
-20.3203	-43.1248	0
-15.7039	-43.1084	0
-11.8063	-43.0748	0
-8.55954	-43.0428	0
-5.89159	-43.0251	0
-3.73081	-43.0282	0
-2.00938	-43.054	0
-0.665403	-43.1009	0
0.356114	-43.1653	0
1.10321	-43.2427	0
1.61749	-43.3284	0
1.93485	-43.418	0
2.08631	-43.5074	0
2.09883	-43.5931	0
1.99602	-43.6725	0
1.79876	-43.743	0
1.52578	-43.803	0
1.1941	-43.851	0
0.819468	-43.886	0
0.416696	-43.9073	0
-5.64463e-09	-43.9144	0
-0.416696	-43.9073	0
-0.819468	-43.886	0
-1.1941	-43.851	0
-1.52578	-43.803	0
-1.79876	-43.743	0
-1.99602	-43.6725	0
-2.09883	-43.5931	0
-2.08631	-43.5074	0
-1.93485	-43.418	0
-1.61749	-43.3284	0
-1.10321	-43.2427	0
-0.356114	-43.1653	0
0.665403	-43.1009	0
2.00938	-43.054	0
3.73081	-43.0282	0
5.89159	-43.0251	0
8.55954	-43.0428	0
11.8063	-43.0748	0
15.7039	-43.1084	0
20.3203	-43.1248	0
-19.4934	-48.0528	0
-14.9953	-48.0336	0
-11.174	-47.9899	0
-7.97081	-47.9393	0
-5.32384	-47.8943	0
-3.1706	-47.8631	0
-1.45086	-47.8494	0
-0.108445	-47.8537	0
0.907745	-47.8747	0
1.64337	-47.9093	0
2.13881	-47.9542	0
2.42956	-48.0059	0
2.54678	-48.0609	0
2.51794	-48.1162	0
2.36736	-48.1691	0
2.11677	-48.2174	0
1.78579	-48.2592	0
1.39237	-48.2932	0
0.953203	-48.3181	0
0.484028	-48.3334	0
-6.2203e-09	-48.3386	0
-0.484028	-48.3334	0
-0.953203	-48.3181	0
-1.39237	-48.2932	0
-1.78579	-48.2592	0
-2.11677	-48.2174	0
-2.36736	-48.1691	0
-2.51794	-48.1162	0
-2.54678	-48.0609	0
-2.42956	-48.0059	0
-2.13881	-47.9542	0
-1.64337	-47.9093	0
-0.907745	-47.8747	0
0.108445	-47.8537	0
1.45086	-47.8494	0
3.1706	-47.8631	0
5.32384	-47.8943	0
7.97081	-47.9393	0
11.174	-47.9899	0
14.9953	-48.0336	0
19.4934	-48.0528	0
-18.2831	-52.823	0
-13.9366	-52.8012	0
-10.2284	-52.7484	0
-7.10724	-52.6813	0
-4.51897	-52.6123	0
-2.40863	-52.5504	0
-0.7225	-52.5008	0
0.590372	-52.4659	0
1.5772	-52.4459	0
2.28101	-52.4395	0
2.74049	-52.4445	0
2.99027	-52.4585	0
3.06121	-52.4788	0
2.98083	-52.5029	0
2.77382	-52.5284	0
2.46242	-52.5532	0
2.0669	-52.5759	0
1.60589	-52.5948	0
1.09684	-52.6091	0
0.556232	-52.618	0
-6.8015e-09	-52.621	0
-0.556232	-52.618	0
-1.09684	-52.6091	0
-1.60589	-52.5948	0
-2.0669	-52.5759	0
-2.46242	-52.5532	0
-2.77382	-52.5284	0
-2.98083	-52.5029	0
-3.06121	-52.4788	0
-2.99027	-52.4585	0
-2.74049	-52.4445	0
-2.28101	-52.4395	0
-1.5772	-52.4459	0
-0.590372	-52.4659	0
0.7225	-52.5008	0
2.40863	-52.5504	0
4.51897	-52.6123	0
7.10724	-52.6813	0
10.2284	-52.7484	0
13.9366	-52.8012	0
18.2831	-52.823	0
-16.7128	-57.4061	0
-12.5478	-57.3818	0
-8.98538	-57.3208	0
-5.98004	-57.2389	0
-3.48397	-57.1486	0
-1.44838	-57.0593	0
0.174829	-56.9773	0
1.43192	-56.9065	0
2.36639	-56.8486	0
3.01849	-56.8035	0
3.42502	-56.7705	0
3.61937	-56.7481	0
3.63172	-56.7344	0
3.48933	-56.7275	0
3.2169	-56.7256	0
2.83692	-56.7269	0
2.37002	-56.73	0
1.83533	-56.7336	0
1.2508	-56.7369	0
0.63352	-56.7392	0
-7.3779e-09	-56.74	0
-0.63352	-56.7392	0
-1.2508	-56.7369	0
-1.83533	-56.7336	0
-2.37002	-56.73	0
-2.83692	-56.7269	0
-3.2169	-56.7256	0
-3.48933	-56.7275	0
-3.63172	-56.7344	0
-3.61937	-56.7481	0
-3.42502	-56.7705	0
-3.01849	-56.8035	0
-2.36639	-56.8486	0
-1.43192	-56.9065	0
-0.174829	-56.9773	0
1.44838	-57.0593	0
3.48397	-57.1486	0
5.98004	-57.2389	0
8.98538	-57.3208	0
12.5478	-57.3818	0
16.7128	-57.4061	0
-14.8044	-61.775	0
-10.8481	-61.7485	0
-7.46049	-61.68	0
-4.60105	-61.5848	0
-2.22708	-61.4755	0
-0.294995	-61.3617	0
1.23849	-61.2507	0
2.4154	-61.1473	0
3.27574	-61.0546	0
3.85701	-60.9738	0
4.19396	-60.9051	0
4.31853	-60.8482	0
4.25994	-60.802	0
4.04492	-60.7652	0
3.6979	-60.7366	0
3.24134	-60.7147	0
2.69602	-60.6986	0
2.08131	-60.6871	0
1.41551	-60.6795	0
0.716092	-60.6752	0
-7.94159e-09	-60.6738	0
-0.716092	-60.6752	0
-1.41551	-60.6795	0
-2.08131	-60.6871	0
-2.69602	-60.6986	0
-3.24134	-60.7147	0
-3.6979	-60.7366	0
-4.04492	-60.7652	0
-4.25994	-60.802	0
-4.31853	-60.8482	0
-4.19396	-60.9051	0
-3.85701	-60.9738	0
-3.27574	-61.0546	0
-2.4154	-61.1473	0
-1.23849	-61.2507	0
0.294995	-61.3617	0
2.22708	-61.4755	0
4.60105	-61.5848	0
7.46049	-61.68	0
10.8481	-61.7485	0
14.8044	-61.775	0
-12.5787	-65.905	0
-8.85568	-65.8763	0
-5.66919	-65.8011	0
-2.98257	-65.6941	0
-0.757527	-65.5676	0
1.04509	-65.432	0
2.46437	-65.2949	0
3.53853	-65.1623	0
4.30432	-65.038	0
4.79656	-64.9244	0
5.04789	-64.8229	0
5.08865	-64.7339	0
4.94693	-64.6571	0
4.64866	-64.592	0
4.21779	-64.5379	0
3.67652	-64.494	0
3.04557	-64.4593	0
2.34435	-64.4331	0
1.5913	-64.4149	0
0.804124	-64.4042	0
-8.49605e-09	-64.4006	0
-0.804124	-64.4042	0
-1.5913	-64.4149	0
-2.34435	-64.4331	0
-3.04557	-64.4593	0
-3.67652	-64.494	0
-4.21779	-64.5379	0
-4.64866	-64.592	0
-4.94693	-64.6571	0
-5.08865	-64.7339	0
-5.04789	-64.8229	0
-4.79656	-64.9244	0
-4.30432	-65.038	0
-3.53853	-65.1623	0
-2.46437	-65.2949	0
-1.04509	-65.432	0
0.757527	-65.5676	0
2.98257	-65.6941	0
5.66919	-65.8011	0
8.85568	-65.8763	0
12.5787	-65.905	0
-10.0555	-69.7732	0
-6.58854	-69.7426	0
-3.62687	-69.6612	0
-1.1373	-69.5435	0
0.914683	-69.4018	0
2.56438	-69.2467	0
3.84715	-69.0864	0
4.79779	-68.9275	0
5.45001	-68.7748	0
5.83606	-68.6316	0
5.98645	-68.5001	0
5.92986	-68.3815	0
5.69308	-68.2765	0
5.30108	-68.1851	0
4.77714	-68.1072	0
4.14302	-68.0424	0
3.41915	-67.9901	0
2.62482	-67.9501	0
1.77845	-67.9218	0
0.897749	-67.905	0
-9.05074e-09	-67.8994	0
-0.897749	-67.905	0
-1.77845	-67.9218	0
-2.62482	-67.9501	0
-3.41915	-67.9901	0
-4.14302	-68.0424	0
-4.77714	-68.1072	0
-5.30108	-68.1851	0
-5.69308	-68.2765	0
-5.92987	-68.3815	0
-5.98645	-68.5001	0
-5.83606	-68.6316	0
-5.45001	-68.7748	0
-4.79779	-68.9275	0
-3.84715	-69.0864	0
-2.56438	-69.2467	0
-0.914683	-69.4018	0
1.1373	-69.5435	0
3.62687	-69.6612	0
6.58854	-69.7426	0
10.0555	-69.7732	0
-7.25445	-73.3584	0
-4.06431	-73.326	0
-1.34894	-73.239	0
0.921735	-73.1118	0
2.77892	-72.9566	0
4.25449	-72.7842	0
5.38047	-72.6033	0
6.18854	-72.421	0
6.70959	-72.2429	0
6.9734	-72.0731	0
7.0084	-71.9145	0
6.84151	-71.7691	0
6.49815	-71.6383	0
6.00221	-71.5228	0
5.37614	-71.4229	0
4.64108	-71.3388	0
3.81702	-71.2703	0
2.92296	-71.2173	0
1.9771	-71.1796	0
0.997048	-71.1571	0
-9.60543e-09	-71.1496	0
-0.997048	-71.1571	0
-1.9771	-71.1796	0
-2.92296	-71.2173	0
-3.81702	-71.2703	0
-4.64108	-71.3388	0
-5.37614	-71.4229	0
-6.00221	-71.5228	0
-6.49815	-71.6383	0
-6.84151	-71.7691	0
-7.0084	-71.9145	0
-6.9734	-72.0731	0
-6.70959	-72.2429	0
-6.18854	-72.421	0
-5.38047	-72.6033	0
-4.25449	-72.7842	0
-2.77892	-72.9566	0
-0.921735	-73.1118	0
1.34894	-73.239	0
4.06431	-73.326	0
7.25445	-73.3584	0
-4.19482	-76.6411	0
-1.30048	-76.6071	0
1.1491	-76.5152	0
3.1812	-76.3794	0
4.824	-76.2123	0
6.1063	-76.0246	0
7.05712	-75.8255	0
7.70524	-75.6226	0
8.07893	-75.422	0
8.2056	-75.2285	0
8.11163	-75.0456	0
7.8222	-74.8763	0
7.36127	-74.7222	0
6.75154	-74.5849	0
6.01451	-74.4651	0
5.17058	-74.3633	0
4.23915	-74.28	0
3.23877	-74.2151	0
2.18729	-74.1688	0
1.10204	-74.141	0
-1.01487e-08	-74.1317	0
-1.10204	-74.141	0
-2.18729	-74.1688	0
-3.23877	-74.2151	0
-4.23915	-74.28	0
-5.17058	-74.3633	0
-6.01451	-74.4651	0
-6.75154	-74.5849	0
-7.36127	-74.7222	0
-7.8222	-74.8763	0
-8.11163	-75.0456	0
-8.2056	-75.2285	0
-8.07893	-75.422	0
-7.70524	-75.6226	0
-7.05712	-75.8255	0
-6.1063	-76.0246	0
-4.824	-76.2123	0
-3.1812	-76.3794	0
-1.1491	-76.5152	0
1.30048	-76.6071	0
4.19482	-76.6411	0
-0.89582	-79.6035	0
1.68546	-79.568	0
3.85167	-79.4717	0
5.62747	-79.3285	0
7.03829	-79.1508	0
8.11011	-78.9498	0
8.86915	-78.7348	0
9.34155	-78.5138	0
9.55306	-78.2934	0
9.52886	-78.079	0
9.29331	-77.8748	0
8.86985	-77.6841	0
8.28095	-77.5094	0
7.54804	-77.3525	0
6.69157	-77.2149	0
5.73108	-77.0973	0
4.68527	-77.0005	0
3.57209	-76.9249	0
2.40892	-76.8707	0
1.21269	-76.8382	0
-1.06721e-08	-76.8273	0
-1.21269	-76.8382	0
-2.40892	-76.8707	0
-3.57209	-76.9249	0
-4.68527	-77.0005	0
-5.73108	-77.0973	0
-6.69157	-77.2149	0
-7.54804	-77.3525	0
-8.28095	-77.5094	0
-8.86985	-77.6841	0
-9.29331	-77.8748	0
-9.52886	-78.079	0
-9.55306	-78.2934	0
-9.34155	-78.5138	0
-8.86915	-78.7348	0
-8.11011	-78.9498	0
-7.03829	-79.1508	0
-5.62747	-79.3285	0
-3.85167	-79.4717	0
-1.68546	-79.568	0
0.89582	-79.6035	0
2.62336	-82.2293	0
4.87596	-82.1926	0
6.743	-82.0924	0
8.24665	-81.9426	0
9.40975	-81.7559	0
10.2557	-81.5433	0
10.808	-81.3145	0
11.0904	-81.0778	0
11.1263	-80.8403	0
10.9387	-80.6077	0
10.5499	-80.3849	0
9.98177	-80.1755	0
9.25514	-79.9826	0
8.39018	-79.8085	0
7.4062	-79.655	0
6.32178	-79.5235	0
5.15481	-79.4147	0
3.92255	-79.3296	0
2.64178	-79.2684	0
1.32889	-79.2317	0
-1.12017e-08	-79.2194	0
-1.32889	-79.2317	0
-2.64178	-79.2684	0
-3.92255	-79.3296	0
-5.15481	-79.4147	0
-6.32178	-79.5235	0
-7.4062	-79.655	0
-8.39018	-79.8085	0
-9.25514	-79.9826	0
-9.98177	-80.1755	0
-10.5499	-80.3849	0
-10.9387	-80.6077	0
-11.1263	-80.8403	0
-11.0904	-81.0778	0
-10.808	-81.3145	0
-10.2557	-81.5433	0
-9.40975	-81.7559	0
-8.24665	-81.9426	0
-6.743	-82.0924	0
-4.87596	-82.1926	0
-2.62336	-82.2293	0
6.34343	-84.5038	0
8.2534	-84.466	0
9.80718	-84.3625	0
11.0246	-84.2072	0
11.926	-84.0126	0
12.5323	-83.7902	0
12.8646	-83.5496	0
12.9443	-83.2995	0
12.7924	-83.0473	0
12.4299	-82.7992	0
11.8774	-82.5603	0
11.1547	-82.3348	0
10.2813	-82.1262	0
9.27599	-81.9371	0
8.1569	-81.7699	0
6.94157	-81.6261	0
5.64697	-81.5069	0
4.28959	-81.4134	0
2.88551	-81.3461	0
1.45047	-81.3056	0
-1.17351e-08	-81.2921	0
-1.45047	-81.3056	0
-2.88551	-81.3461	0
-4.28959	-81.4134	0
-5.64697	-81.5069	0
-6.94157	-81.6261	0
-8.1569	-81.7699	0
-9.27599	-81.9371	0
-10.2813	-82.1262	0
-11.1547	-82.3348	0
-11.8774	-82.5603	0
-12.4299	-82.7992	0
-12.7924	-83.0473	0
-12.9443	-83.2995	0
-12.8646	-83.5496	0
-12.5323	-83.7902	0
-11.926	-84.0126	0
-11.0246	-84.2072	0
-9.80718	-84.3625	0
-8.2534	-84.466	0
-6.34343	-84.5038	0
10.245	-86.414	0
11.8	-86.3752	0
13.0282	-86.2689	0
13.9469	-86.109	0
14.5743	-85.908	0
14.9289	-85.6772	0
15.0294	-85.4268	0
14.8949	-85.1655	0
14.5445	-84.901	0
13.997	-84.6397	0
13.271	-84.3872	0
12.3848	-84.1481	0
11.3564	-83.926	0
10.2031	-83.7243	0
8.94182	-83.5453	0
7.58901	-83.3909	0
6.1607	-83.2628	0
4.67248	-83.1621	0
3.13964	-83.0895	0
1.5772	-83.0458	0
-1.22686e-08	-83.0312	0
-1.5772	-83.0458	0
-3.13964	-83.0895	0
-4.67248	-83.1621	0
-6.1607	-83.2628	0
-7.58901	-83.3909	0
-8.94182	-83.5453	0
-10.2031	-83.7243	0
-11.3564	-83.926	0
-12.3848	-84.1481	0
-13.271	-84.3872	0
-13.997	-84.6397	0
-14.5445	-84.901	0
-14.8949	-85.1655	0
-15.0294	-85.4268	0
-14.9289	-85.6772	0
-14.5743	-85.908	0
-13.9469	-86.109	0
-13.0282	-86.2689	0
-11.8	-86.3752	0
-10.245	-86.414	0
14.3086	-87.9483	0
15.4979	-87.9088	0
16.3897	-87.8003	0
16.9991	-87.6366	0
17.3418	-87.4303	0
17.4341	-87.1929	0
17.2926	-86.9345	0
16.934	-86.6641	0
16.3754	-86.3894	0
15.6337	-86.1173	0
14.7257	-85.8536	0
13.668	-85.6031	0
12.4771	-85.37	0
11.1687	-85.1576	0
9.75877	-84.9687	0
8.26243	-84.8055	0
6.69472	-84.6698	0
5.0703	-84.563	0
3.40358	-84.4861	0
1.70879	-84.4396	0
-1.27887e-08	-84.4241	0
-1.70879	-84.4396	0
-3.40358	-84.4861	0
-5.0703	-84.563	0
-6.69472	-84.6698	0
-8.26243	-84.8055	0
-9.75877	-84.9687	0
-11.1687	-85.1576	0
-12.4771	-85.37	0
-13.668	-85.6031	0
-14.7257	-85.8536	0
-15.6337	-86.1173	0
-16.3754	-86.3894	0
-16.934	-86.6641	0
-17.2926	-86.9345	0
-17.4341	-87.1929	0
-17.3418	-87.4303	0
-16.9991	-87.6366	0
-16.3897	-87.8003	0
-15.4979	-87.9088	0
-14.3086	-87.9483	0
18.5145	-89.0969	0
19.3292	-89.0569	0
19.8755	-88.9467	0
20.1664	-88.7801	0
20.2153	-88.5698	0
20.0363	-88.3273	0
19.6438	-88.0626	0
19.0525	-87.785	0
18.2774	-87.5023	0
17.3336	-87.2217	0
16.236	-86.949	0
14.9997	-86.6894	0
13.6395	-86.4472	0
12.1699	-86.2262	0
10.6053	-86.0293	0
8.95988	-85.859	0
7.24756	-85.7171	0
5.48199	-85.6053	0
3.67666	-85.5247	0
1.84492	-85.476	0
-1.32872e-08	-85.4597	0
-1.84492	-85.476	0
-3.67666	-85.5247	0
-5.48199	-85.6053	0
-7.24756	-85.7171	0
-8.95988	-85.859	0
-10.6053	-86.0293	0
-12.1699	-86.2262	0
-13.6395	-86.4472	0
-14.9997	-86.6894	0
-16.236	-86.949	0
-17.3336	-87.2217	0
-18.2774	-87.5023	0
-19.0525	-87.785	0
-19.6438	-88.0626	0
-20.0363	-88.3273	0
-20.2153	-88.5698	0
-20.1664	-88.7801	0
-19.8755	-88.9467	0
-19.3292	-89.0569	0
-18.5145	-89.0969	0
22.8431	-89.8518	0
23.2757	-89.8114	0
23.4691	-89.7	0
23.4339	-89.5315	0
23.1815	-89.3183	0
22.7237	-89.072	0
22.0727	-88.8029	0
21.2414	-88.5199	0
20.2427	-88.2313	0
19.0899	-87.9442	0
17.7962	-87.6646	0
16.375	-87.3981	0
14.8395	-87.149	0
13.2031	-86.9213	0
11.4786	-86.7181	0
9.67921	-86.5421	0
7.81757	-86.3954	0
5.90636	-86.2797	0
3.9581	-86.1961	0
1.9852	-86.1457	0
-1.37804e-08	-86.1288	0
-1.9852	-86.1457	0
-3.9581	-86.1961	0
-5.90636	-86.2797	0
-7.81757	-86.3954	0
-9.67921	-86.5421	0
-11.4786	-86.7181	0
-13.2031	-86.9213	0
-14.8395	-87.149	0
-16.375	-87.3981	0
-17.7962	-87.6646	0
-19.0899	-87.9442	0
-20.2427	-88.2313	0
-21.2414	-88.5199	0
-22.0727	-88.8029	0
-22.7237	-89.072	0
-23.1815	-89.3183	0
-23.4339	-89.5315	0
-23.4691	-89.7	0
-23.2757	-89.8114	0
-22.8431	-89.8518	0
27.2744	-90.2063	0
27.3193	-90.1657	0
27.1539	-90.0538	0
26.7868	-89.8841	0
26.2269	-89.6693	0
25.4841	-89.4207	0
24.5687	-89.1486	0
23.4913	-88.8622	0
22.2631	-88.5695	0
20.8956	-88.2779	0
19.4002	-87.9936	0
17.7887	-87.7221	0
16.073	-87.468	0
14.2648	-87.2355	0
12.3759	-87.0277	0
10.4181	-86.8475	0
8.40295	-86.6972	0
6.34211	-86.5785	0
4.24704	-86.4928	0
2.12921	-86.441	0
-1.42516e-08	-86.4237	0
-2.12921	-86.441	0
-4.24704	-86.4928	0
-6.34211	-86.5785	0