# vtk DataFile Version 4.1
vtk output
ASCII
DATASET UNSTRUCTURED_GRID

POINTS	5	float
0	0	0.0	
0	600	0.0	
300	600	0.0	
500	600	0.0	
500	0	0.0	

CELLS 4	12
2	0	1	
2	1	2	
2	2	3	
2	3	4	

CELL_TYPES	4
3
3
3
3

POINT_DATA	5
VECTORS u0 float
0	0	0.00154296
-0.212205	-0.00285437	-0.0020249
-0.212403	-0.503256	0.000829721
-0.212536	-0.00428155	0.0027328
0	0	-0.000835063
