# vtk DataFile Version 4.1
vtk output
ASCII
DATASET UNSTRUCTURED_GRID

POINTS	25	float
0	0	0.0	
1	0	0.0	
2	0	0.0	
3	0	0.0	
4	0	0.0	
0	1	0.0	
1	1	0.0	
2	1	0.0	
3	1	0.0	
4	1	0.0	
0	2	0.0	
1	2	0.0	
2	2	0.0	
3	2	0.0	
4	2	0.0	
0	3	0.0	
1	3	0.0	
2	3	0.0	
3	3	0.0	
4	3	0.0	
0	4	0.0	
1	4	0.0	
2	4	0.0	
3	4	0.0	
4	4	0.0	

CELLS 16	80
4	0	1	6	5	
4	1	2	7	6	
4	2	3	8	7	
4	3	4	9	8	
4	5	6	11	10	
4	6	7	12	11	
4	7	8	13	12	
4	8	9	14	13	
4	10	11	16	15	
4	11	12	17	16	
4	12	13	18	17	
4	13	14	19	18	
4	15	16	21	20	
4	16	17	22	21	
4	17	18	23	22	
4	18	19	24	23	

CELL_TYPES	16
9
9
9
9
9
9
9
9
9
9
9
9
9
9
9
9

POINT_DATA	25
SCALARS u float
LOOKUP_TABLE default
300
300
300
300
300
100
216.609
249.321
262.3
265.713
100
169.174
214.375
232.108
236.885
100
172.96
200.128
212.404
215.739
200
200
200
200
200
