# vtk DataFile Version 4.1
vtk output
ASCII
DATASET UNSTRUCTURED_GRID

POINTS	14586	float
0	0	0	
0.04	0	0	
0.08	0	0	
0.12	0	0	
0.16	0	0	
0.2	0	0	
0.24	0	0	
0.28	0	0	
0.32	0	0	
0.36	0	0	
0.4	0	0	
0	0.04	0	
0.04	0.04	0	
0.08	0.04	0	
0.12	0.04	0	
0.16	0.04	0	
0.2	0.04	0	
0.24	0.04	0	
0.28	0.04	0	
0.32	0.04	0	
0.36	0.04	0	
0.4	0.04	0	
0	0.08	0	
0.04	0.08	0	
0.08	0.08	0	
0.12	0.08	0	
0.16	0.08	0	
0.2	0.08	0	
0.24	0.08	0	
0.28	0.08	0	
0.32	0.08	0	
0.36	0.08	0	
0.4	0.08	0	
0	0.12	0	
0.04	0.12	0	
0.08	0.12	0	
0.12	0.12	0	
0.16	0.12	0	
0.2	0.12	0	
0.24	0.12	0	
0.28	0.12	0	
0.32	0.12	0	
0.36	0.12	0	
0.4	0.12	0	
0	0.16	0	
0.04	0.16	0	
0.08	0.16	0	
0.12	0.16	0	
0.16	0.16	0	
0.2	0.16	0	
0.24	0.16	0	
0.28	0.16	0	
0.32	0.16	0	
0.36	0.16	0	
0.4	0.16	0	
0	0.2	0	
0.04	0.2	0	
0.08	0.2	0	
0.12	0.2	0	
0.16	0.2	0	
0.2	0.2	0	
0.24	0.2	0	
0.28	0.2	0	
0.32	0.2	0	
0.36	0.2	0	
0.4	0.2	0	
0	0.24	0	
0.04	0.24	0	
0.08	0.24	0	
0.12	0.24	0	
0.16	0.24	0	
0.2	0.24	0	
0.24	0.24	0	
0.28	0.24	0	
0.32	0.24	0	
0.36	0.24	0	
0.4	0.24	0	
0	0.28	0	
0.04	0.28	0	
0.08	0.28	0	
0.12	0.28	0	
0.16	0.28	0	
0.2	0.28	0	
0.24	0.28	0	
0.28	0.28	0	
0.32	0.28	0	
0.36	0.28	0	
0.4	0.28	0	
0	0.32	0	
0.04	0.32	0	
0.08	0.32	0	
0.12	0.32	0	
0.16	0.32	0	
0.2	0.32	0	
0.24	0.32	0	
0.28	0.32	0	
0.32	0.32	0	
0.36	0.32	0	
0.4	0.32	0	
0	0.36	0	
0.04	0.36	0	
0.08	0.36	0	
0.12	0.36	0	
0.16	0.36	0	
0.2	0.36	0	
0.24	0.36	0	
0.28	0.36	0	
0.32	0.36	0	
0.36	0.36	0	
0.4	0.36	0	
0	0.4	0	
0.04	0.4	0	
0.08	0.4	0	
0.12	0.4	0	
0.16	0.4	0	
0.2	0.4	0	
0.24	0.4	0	
0.28	0.4	0	
0.32	0.4	0	
0.36	0.4	0	
0.4	0.4	0	
0	0.44	0	
0.04	0.44	0	
0.08	0.44	0	
0.12	0.44	0	
0.16	0.44	0	
0.2	0.44	0	
0.24	0.44	0	
0.28	0.44	0	
0.32	0.44	0	
0.36	0.44	0	
0.4	0.44	0	
0	0.48	0	
0.04	0.48	0	
0.08	0.48	0	
0.12	0.48	0	
0.16	0.48	0	
0.2	0.48	0	
0.24	0.48	0	
0.28	0.48	0	
0.32	0.48	0	
0.36	0.48	0	
0.4	0.48	0	
0	0.52	0	
0.04	0.52	0	
0.08	0.52	0	
0.12	0.52	0	
0.16	0.52	0	
0.2	0.52	0	
0.24	0.52	0	
0.28	0.52	0	
0.32	0.52	0	
0.36	0.52	0	
0.4	0.52	0	
0	0.56	0	
0.04	0.56	0	
0.08	0.56	0	
0.12	0.56	0	
0.16	0.56	0	
0.2	0.56	0	
0.24	0.56	0	
0.28	0.56	0	
0.32	0.56	0	
0.36	0.56	0	
0.4	0.56	0	
0	0.6	0	
0.04	0.6	0	
0.08	0.6	0	
0.12	0.6	0	
0.16	0.6	0	
0.2	0.6	0	
0.24	0.6	0	
0.28	0.6	0	
0.32	0.6	0	
0.36	0.6	0	
0.4	0.6	0	
0	0.64	0	
0.04	0.64	0	
0.08	0.64	0	
0.12	0.64	0	
0.16	0.64	0	
0.2	0.64	0	
0.24	0.64	0	
0.28	0.64	0	
0.32	0.64	0	
0.36	0.64	0	
0.4	0.64	0	
0	0.68	0	
0.04	0.68	0	
0.08	0.68	0	
0.12	0.68	0	
0.16	0.68	0	
0.2	0.68	0	
0.24	0.68	0	
0.28	0.68	0	
0.32	0.68	0	
0.36	0.68	0	
0.4	0.68	0	
0	0.72	0	
0.04	0.72	0	
0.08	0.72	0	
0.12	0.72	0	
0.16	0.72	0	
0.2	0.72	0	
0.24	0.72	0	
0.28	0.72	0	
0.32	0.72	0	
0.36	0.72	0	
0.4	0.72	0	
0	0.76	0	
0.04	0.76	0	
0.08	0.76	0	
0.12	0.76	0	
0.16	0.76	0	
0.2	0.76	0	
0.24	0.76	0	
0.28	0.76	0	
0.32	0.76	0	
0.36	0.76	0	
0.4	0.76	0	
0	0.8	0	
0.04	0.8	0	
0.08	0.8	0	
0.12	0.8	0	
0.16	0.8	0	
0.2	0.8	0	
0.24	0.8	0	
0.28	0.8	0	
0.32	0.8	0	
0.36	0.8	0	
0.4	0.8	0	
0	0.84	0	
0.04	0.84	0	
0.08	0.84	0	
0.12	0.84	0	
0.16	0.84	0	
0.2	0.84	0	
0.24	0.84	0	
0.28	0.84	0	
0.32	0.84	0	
0.36	0.84	0	
0.4	0.84	0	
0	0.88	0	
0.04	0.88	0	
0.08	0.88	0	
0.12	0.88	0	
0.16	0.88	0	
0.2	0.88	0	
0.24	0.88	0	
0.28	0.88	0	
0.32	0.88	0	
0.36	0.88	0	
0.4	0.88	0	
0	0.92	0	
0.04	0.92	0	
0.08	0.92	0	
0.12	0.92	0	
0.16	0.92	0	
0.2	0.92	0	
0.24	0.92	0	
0.28	0.92	0	
0.32	0.92	0	
0.36	0.92	0	
0.4	0.92	0	
0	0.96	0	
0.04	0.96	0	
0.08	0.96	0	
0.12	0.96	0	
0.16	0.96	0	
0.2	0.96	0	
0.24	0.96	0	
0.28	0.96	0	
0.32	0.96	0	
0.36	0.96	0	
0.4	0.96	0	
0	1	0	
0.04	1	0	
0.08	1	0	
0.12	1	0	
0.16	1	0	
0.2	1	0	
0.24	1	0	
0.28	1	0	
0.32	1	0	
0.36	1	0	
0.4	1	0	
0	0	0.04	
0.04	0	0.04	
0.08	0	0.04	
0.12	0	0.04	
0.16	0	0.04	
0.2	0	0.04	
0.24	0	0.04	
0.28	0	0.04	
0.32	0	0.04	
0.36	0	0.04	
0.4	0	0.04	
0	0.04	0.04	
0.04	0.04	0.04	
0.08	0.04	0.04	
0.12	0.04	0.04	
0.16	0.04	0.04	
0.2	0.04	0.04	
0.24	0.04	0.04	
0.28	0.04	0.04	
0.32	0.04	0.04	
0.36	0.04	0.04	
0.4	0.04	0.04	
0	0.08	0.04	
0.04	0.08	0.04	
0.08	0.08	0.04	
0.12	0.08	0.04	
0.16	0.08	0.04	
0.2	0.08	0.04	
0.24	0.08	0.04	
0.28	0.08	0.04	
0.32	0.08	0.04	
0.36	0.08	0.04	
0.4	0.08	0.04	
0	0.12	0.04	
0.04	0.12	0.04	
0.08	0.12	0.04	
0.12	0.12	0.04	
0.16	0.12	0.04	
0.2	0.12	0.04	
0.24	0.12	0.04	
0.28	0.12	0.04	
0.32	0.12	0.04	
0.36	0.12	0.04	
0.4	0.12	0.04	
0	0.16	0.04	
0.04	0.16	0.04	
0.08	0.16	0.04	
0.12	0.16	0.04	
0.16	0.16	0.04	
0.2	0.16	0.04	
0.24	0.16	0.04	
0.28	0.16	0.04	
0.32	0.16	0.04	
0.36	0.16	0.04	
0.4	0.16	0.04	
0	0.2	0.04	
0.04	0.2	0.04	
0.08	0.2	0.04	
0.12	0.2	0.04	
0.16	0.2	0.04	
0.2	0.2	0.04	
0.24	0.2	0.04	
0.28	0.2	0.04	
0.32	0.2	0.04	
0.36	0.2	0.04	
0.4	0.2	0.04	
0	0.24	0.04	
0.04	0.24	0.04	
0.08	0.24	0.04	
0.12	0.24	0.04	
0.16	0.24	0.04	
0.2	0.24	0.04	
0.24	0.24	0.04	
0.28	0.24	0.04	
0.32	0.24	0.04	
0.36	0.24	0.04	
0.4	0.24	0.04	
0	0.28	0.04	
0.04	0.28	0.04	
0.08	0.28	0.04	
0.12	0.28	0.04	
0.16	0.28	0.04	
0.2	0.28	0.04	
0.24	0.28	0.04	
0.28	0.28	0.04	
0.32	0.28	0.04	
0.36	0.28	0.04	
0.4	0.28	0.04	
0	0.32	0.04	
0.04	0.32	0.04	
0.08	0.32	0.04	
0.12	0.32	0.04	
0.16	0.32	0.04	
0.2	0.32	0.04	
0.24	0.32	0.04	
0.28	0.32	0.04	
0.32	0.32	0.04	
0.36	0.32	0.04	
0.4	0.32	0.04	
0	0.36	0.04	
0.04	0.36	0.04	
0.08	0.36	0.04	
0.12	0.36	0.04	
0.16	0.36	0.04	
0.2	0.36	0.04	
0.24	0.36	0.04	
0.28	0.36	0.04	
0.32	0.36	0.04	
0.36	0.36	0.04	
0.4	0.36	0.04	
0	0.4	0.04	
0.04	0.4	0.04	
0.08	0.4	0.04	
0.12	0.4	0.04	
0.16	0.4	0.04	
0.2	0.4	0.04	
0.24	0.4	0.04	
0.28	0.4	0.04	
0.32	0.4	0.04	
0.36	0.4	0.04	
0.4	0.4	0.04	
0	0.44	0.04	
0.04	0.44	0.04	
0.08	0.44	0.04	
0.12	0.44	0.04	
0.16	0.44	0.04	
0.2	0.44	0.04	
0.24	0.44	0.04	
0.28	0.44	0.04	
0.32	0.44	0.04	
0.36	0.44	0.04	
0.4	0.44	0.04	
0	0.48	0.04	
0.04	0.48	0.04	
0.08	0.48	0.04	
0.12	0.48	0.04	
0.16	0.48	0.04	
0.2	0.48	0.04	
0.24	0.48	0.04	
0.28	0.48	0.04	
0.32	0.48	0.04	
0.36	0.48	0.04	
0.4	0.48	0.04	
0	0.52	0.04	
0.04	0.52	0.04	
0.08	0.52	0.04	
0.12	0.52	0.04	
0.16	0.52	0.04	
0.2	0.52	0.04	
0.24	0.52	0.04	
0.28	0.52	0.04	
0.32	0.52	0.04	
0.36	0.52	0.04	
0.4	0.52	0.04	
0	0.56	0.04	
0.04	0.56	0.04	
0.08	0.56	0.04	
0.12	0.56	0.04	
0.16	0.56	0.04	
0.2	0.56	0.04	
0.24	0.56	0.04	
0.28	0.56	0.04	
0.32	0.56	0.04	
0.36	0.56	0.04	
0.4	0.56	0.04	
0	0.6	0.04	
0.04	0.6	0.04	
0.08	0.6	0.04	
0.12	0.6	0.04	
0.16	0.6	0.04	
0.2	0.6	0.04	
0.24	0.6	0.04	
0.28	0.6	0.04	
0.32	0.6	0.04	
0.36	0.6	0.04	
0.4	0.6	0.04	
0	0.64	0.04	
0.04	0.64	0.04	
0.08	0.64	0.04	
0.12	0.64	0.04	
0.16	0.64	0.04	
0.2	0.64	0.04	
0.24	0.64	0.04	
0.28	0.64	0.04	
0.32	0.64	0.04	
0.36	0.64	0.04	
0.4	0.64	0.04	
0	0.68	0.04	
0.04	0.68	0.04	
0.08	0.68	0.04	
0.12	0.68	0.04	
0.16	0.68	0.04	
0.2	0.68	0.04	
0.24	0.68	0.04	
0.28	0.68	0.04	
0.32	0.68	0.04	
0.36	0.68	0.04	
0.4	0.68	0.04	
0	0.72	0.04	
0.04	0.72	0.04	
0.08	0.72	0.04	
0.12	0.72	0.04	
0.16	0.72	0.04	
0.2	0.72	0.04	
0.24	0.72	0.04	
0.28	0.72	0.04	
0.32	0.72	0.04	
0.36	0.72	0.04	
0.4	0.72	0.04	
0	0.76	0.04	
0.04	0.76	0.04	
0.08	0.76	0.04	
0.12	0.76	0.04	
0.16	0.76	0.04	
0.2	0.76	0.04	
0.24	0.76	0.04	
0.28	0.76	0.04	
0.32	0.76	0.04	
0.36	0.76	0.04	
0.4	0.76	0.04	
0	0.8	0.04	
0.04	0.8	0.04	
0.08	0.8	0.04	
0.12	0.8	0.04	
0.16	0.8	0.04	
0.2	0.8	0.04	
0.24	0.8	0.04	
0.28	0.8	0.04	
0.32	0.8	0.04	
0.36	0.8	0.04	
0.4	0.8	0.04	
0	0.84	0.04	
0.04	0.84	0.04	
0.08	0.84	0.04	
0.12	0.84	0.04	
0.16	0.84	0.04	
0.2	0.84	0.04	
0.24	0.84	0.04	
0.28	0.84	0.04	
0.32	0.84	0.04	
0.36	0.84	0.04	
0.4	0.84	0.04	
0	0.88	0.04	
0.04	0.88	0.04	
0.08	0.88	0.04	
0.12	0.88	0.04	
0.16	0.88	0.04	
0.2	0.88	0.04	
0.24	0.88	0.04	
0.28	0.88	0.04	
0.32	0.88	0.04	
0.36	0.88	0.04	
0.4	0.88	0.04	
0	0.92	0.04	
0.04	0.92	0.04	
0.08	0.92	0.04	
0.12	0.92	0.04	
0.16	0.92	0.04	
0.2	0.92	0.04	
0.24	0.92	0.04	
0.28	0.92	0.04	
0.32	0.92	0.04	
0.36	0.92	0.04	
0.4	0.92	0.04	
0	0.96	0.04	
0.04	0.96	0.04	
0.08	0.96	0.04	
0.12	0.96	0.04	
0.16	0.96	0.04	
0.2	0.96	0.04	
0.24	0.96	0.04	
0.28	0.96	0.04	
0.32	0.96	0.04	
0.36	0.96	0.04	
0.4	0.96	0.04	
0	1	0.04	
0.04	1	0.04	
0.08	1	0.04	
0.12	1	0.04	
0.16	1	0.04	
0.2	1	0.04	
0.24	1	0.04	
0.28	1	0.04	
0.32	1	0.04	
0.36	1	0.04	
0.4	1	0.04	
0	0	0.08	
0.04	0	0.08	
0.08	0	0.08	
0.12	0	0.08	
0.16	0	0.08	
0.2	0	0.08	
0.24	0	0.08	
0.28	0	0.08	
0.32	0	0.08	
0.36	0	0.08	
0.4	0	0.08	
0	0.04	0.08	
0.04	0.04	0.08	
0.08	0.04	0.08	
0.12	0.04	0.08	
0.16	0.04	0.08	
0.2	0.04	0.08	
0.24	0.04	0.08	
0.28	0.04	0.08	
0.32	0.04	0.08	
0.36	0.04	0.08	
0.4	0.04	0.08	
0	0.08	0.08	
0.04	0.08	0.08	
0.08	0.08	0.08	
0.12	0.08	0.08	
0.16	0.08	0.08	
0.2	0.08	0.08	
0.24	0.08	0.08	
0.28	0.08	0.08	
0.32	0.08	0.08	
0.36	0.08	0.08	
0.4	0.08	0.08	
0	0.12	0.08	
0.04	0.12	0.08	
0.08	0.12	0.08	
0.12	0.12	0.08	
0.16	0.12	0.08	
0.2	0.12	0.08	
0.24	0.12	0.08	
0.28	0.12	0.08	
0.32	0.12	0.08	
0.36	0.12	0.08	
0.4	0.12	0.08	
0	0.16	0.08	
0.04	0.16	0.08	
0.08	0.16	0.08	
0.12	0.16	0.08	
0.16	0.16	0.08	
0.2	0.16	0.08	
0.24	0.16	0.08	
0.28	0.16	0.08	
0.32	0.16	0.08	
0.36	0.16	0.08	
0.4	0.16	0.08	
0	0.2	0.08	
0.04	0.2	0.08	
0.08	0.2	0.08	
0.12	0.2	0.08	
0.16	0.2	0.08	
0.2	0.2	0.08	
0.24	0.2	0.08	
0.28	0.2	0.08	
0.32	0.2	0.08	
0.36	0.2	0.08	
0.4	0.2	0.08	
0	0.24	0.08	
0.04	0.24	0.08	
0.08	0.24	0.08	
0.12	0.24	0.08	
0.16	0.24	0.08	
0.2	0.24	0.08	
0.24	0.24	0.08	
0.28	0.24	0.08	
0.32	0.24	0.08	
0.36	0.24	0.08	
0.4	0.24	0.08	
0	0.28	0.08	
0.04	0.28	0.08	
0.08	0.28	0.08	
0.12	0.28	0.08	
0.16	0.28	0.08	
0.2	0.28	0.08	
0.24	0.28	0.08	
0.28	0.28	0.08	
0.32	0.28	0.08	
0.36	0.28	0.08	
0.4	0.28	0.08	
0	0.32	0.08	
0.04	0.32	0.08	
0.08	0.32	0.08	
0.12	0.32	0.08	
0.16	0.32	0.08	
0.2	0.32	0.08	
0.24	0.32	0.08	
0.28	0.32	0.08	
0.32	0.32	0.08	
0.36	0.32	0.08	
0.4	0.32	0.08	
0	0.36	0.08	
0.04	0.36	0.08	
0.08	0.36	0.08	
0.12	0.36	0.08	
0.16	0.36	0.08	
0.2	0.36	0.08	
0.24	0.36	0.08	
0.28	0.36	0.08	
0.32	0.36	0.08	
0.36	0.36	0.08	
0.4	0.36	0.08	
0	0.4	0.08	
0.04	0.4	0.08	
0.08	0.4	0.08	
0.12	0.4	0.08	
0.16	0.4	0.08	
0.2	0.4	0.08	
0.24	0.4	0.08	
0.28	0.4	0.08	
0.32	0.4	0.08	
0.36	0.4	0.08	
0.4	0.4	0.08	
0	0.44	0.08	
0.04	0.44	0.08	
0.08	0.44	0.08	
0.12	0.44	0.08	
0.16	0.44	0.08	
0.2	0.44	0.08	
0.24	0.44	0.08	
0.28	0.44	0.08	
0.32	0.44	0.08	
0.36	0.44	0.08	
0.4	0.44	0.08	
0	0.48	0.08	
0.04	0.48	0.08	
0.08	0.48	0.08	
0.12	0.48	0.08	
0.16	0.48	0.08	
0.2	0.48	0.08	
[...]
POINT_DATA	14586
VECTORS u0 float
0	0	0
0.000849189	0	0
0.00139168	0	0
0.00178499	0	0
0.00212674	0	0
0.00244767	0	0
0.0027686	0	0
0.00311038	0	0
0.00350376	0	0
0.00404658	0	0
0.00489732	0	0
0.000536235	-0.00161841	0
0.00103214	-0.0018123	0
0.00146662	-0.00182813	0
0.00182476	-0.00184518	0
0.00214421	-0.00185439	0
0.00244755	-0.00185735	0
0.00275088	-0.00185421	0
0.00307035	-0.00184483	0
0.00342853	-0.0018276	0
0.00386305	-0.00181167	0
0.00435851	-0.00161725	0
0.00099918	-0.00248411	0
0.001296	-0.00267567	0
0.00160148	-0.00273306	0
0.00189706	-0.00275919	0
0.00217645	-0.00277311	0
0.00244734	-0.00277738	0
0.00271822	-0.00277284	0
0.00299761	-0.00275865	0
0.00329318	-0.00273224	0
0.00359856	-0.00267449	0
0.00389535	-0.00248249	0
0.00126669	-0.00298327	0
0.00149666	-0.00314134	0
0.00173427	-0.00321677	0
0.00197427	-0.00325363	0
0.00221199	-0.00327159	0
0.00244711	-0.00327705	0
0.00268222	-0.00327126	0
0.00291992	-0.00325296	0
0.0031599	-0.00321575	0
0.00339747	-0.00313992	0
0.00362737	-0.00298142	0
0.00146547	-0.00332961	0
0.0016535	-0.00346432	0
0.00184785	-0.0035417	0
0.00204626	-0.00358485	0
0.0022464	-0.00360669	0
0.00244686	-0.0036133	0
0.00264733	-0.00360633	0
0.00284745	-0.0035841	0
0.00304584	-0.00354055	0
0.00324016	-0.00346275	0
0.00342815	-0.0033276	0
0.00162388	-0.00359155	0
0.00178174	-0.00370851	0
0.00194366	-0.00378347	0
0.00210933	-0.00382895	0
0.00227741	-0.0038532	0
0.00244662	-0.00386069	0
0.00261582	-0.0038528	0
0.0027839	-0.00382814	0
0.00294954	-0.00378224	0
0.00311145	-0.00370684	0
0.00326928	-0.00358942	0
0.00175633	-0.00380114	0
0.00188959	-0.00390456	0
0.00202538	-0.00397563	0
0.00216393	-0.00402127	0
0.0023046	-0.00404656	0
0.00244637	-0.00405452	0
0.00258814	-0.00404614	0
0.0027288	-0.00402042	0
0.00286734	-0.00397434	0
0.00300311	-0.00390281	0
0.00313635	-0.00379892	0
0.00187095	-0.00397542	0
0.00198285	-0.00406849	0
0.00209626	-0.00413544	0
0.00221155	-0.0041801	0
0.0023284	-0.00420552	0
0.00244612	-0.00421363	0
0.00256383	-0.00420508	0
0.00268068	-0.00417922	0
0.00279595	-0.00413411	0
0.00290936	-0.00406669	0
0.00302124	-0.00397314	0
0.0019729	-0.00412487	0
0.00206553	-0.00421001	0
0.00215903	-0.00427313	0
0.00225374	-0.00431631	0
0.0023495	-0.00434133	0
0.00244586	-0.00434938	0
0.00254223	-0.00434087	0
0.00263799	-0.0043154	0
0.00273268	-0.00427176	0
0.00282617	-0.00420817	0
0.0029188	-0.00412254	0
0.00206569	-0.00425638	0
0.0021405	-0.00433548	0
0.00221579	-0.00439526	0
0.00229181	-0.00443682	0
0.00236851	-0.00446119	0
0.00244561	-0.00446908	0
0.0025227	-0.00446073	0
0.0025994	-0.00443589	0
0.00267542	-0.00439386	0
0.0027507	-0.0043336	0
0.00282551	-0.00425401	0
0.00215178	-0.00437482	0
0.00220983	-0.00444931	0
0.00226813	-0.00450629	0
0.00232685	-0.00454633	0
0.00238598	-0.00456999	0
0.00244535	-0.00457767	0
0.00250473	-0.00456952	0
0.00256386	-0.00454539	0
0.00262258	-0.00450487	0
0.00268087	-0.0044474	0
0.00273891	-0.00437242	0
0.00223297	-0.00448375	0
0.00227504	-0.00455476	0
0.00231722	-0.00460947	0
0.00235964	-0.00464817	0
0.0024023	-0.00467114	0
0.0024451	-0.00467861	0
0.0024879	-0.00467066	0
0.00253055	-0.00464721	0
0.00257297	-0.00460804	0
0.00261515	-0.00455283	0
0.00265722	-0.00448133	0
0.00231055	-0.00458591	0
0.00233724	-0.00465431	0
0.00236397	-0.00470723	0
0.00239081	-0.00474481	0
0.00241779	-0.00476717	0
0.00244484	-0.00477446	0
0.0024719	-0.00476669	0
0.00249887	-0.00474384	0
0.00252572	-0.00470578	0
0.00255244	-0.00465236	0
0.00257913	-0.00458347	0
0.00238553	-0.00468346	0
0.00239727	-0.00474994	0
0.00240902	-0.0048015	0
0.00242082	-0.00483818	0
0.00243268	-0.00486005	0
0.00244459	-0.00486717	0
0.00245649	-0.00485957	0
0.00246835	-0.00483721	0
0.00248015	-0.00480004	0
0.0024919	-0.00474799	0
0.00250365	-0.004681	0
0.00245864	-0.00477819	0
0.00245577	-0.00484331	0
0.00245288	-0.00489386	0
0.00245001	-0.00492987	0
0.00244716	-0.00495135	0
0.00244433	-0.00495834	0
0.00244149	-0.00495086	0
0.00243865	-0.00492889	0
0.00243578	-0.0048924	0
0.0024329	-0.00484134	0
0.00243003	-0.00477572	0
0.00253048	-0.00487162	0
0.00251322	-0.00493583	0
0.00249595	-0.00498569	0
0.00247866	-0.00502121	0
0.00246137	-0.0050424	0
0.00244407	-0.0050493	0
0.00242678	-0.00504191	0
0.00240949	-0.00502022	0
0.0023922	-0.00498421	0
0.00237493	-0.00493385	0
0.00235768	-0.00486914	0
0.00260153	-0.0049651	0
0.00257004	-0.00502877	0
0.00253852	-0.0050782	0
0.00250698	-0.00511341	0
0.0024754	-0.00513442	0
0.00244382	-0.00514126	0
0.00241223	-0.00513393	0
0.00238066	-0.00511242	0
0.00234912	-0.00507672	0
0.00231761	-0.00502679	0
0.00228612	-0.00496261	0
0.00267219	-0.00505989	0
0.00262654	-0.00512334	0
0.00258086	-0.00517257	0
0.00253513	-0.00520762	0
0.00248936	-0.00522852	0
0.00244356	-0.00523532	0
0.00239777	-0.00522803	0
0.002352	-0.00520662	0
0.00230627	-0.00517108	0
0.0022606	-0.00512135	0
0.00221496	-0.0050574	0
0.00274279	-0.00515721	0
0.00268301	-0.00522071	0
0.00262317	-0.00526993	0
0.00256327	-0.00530493	0
0.00250331	-0.0053258	0
0.00244331	-0.00533259	0
0.00238331	-0.00532531	0
0.00232335	-0.00530394	0
0.00226345	-0.00526843	0
0.00220363	-0.00521872	0
0.00214385	-0.00515471	0
0.00281362	-0.00525828	0
0.00273967	-0.00532207	0
0.00266564	-0.00537143	0
0.00259152	-0.0054065	0
0.00251731	-0.00542739	0
0.00244306	-0.00543418	0
0.0023688	-0.00542689	0
0.0022946	-0.0054055	0
0.00222048	-0.00536993	0
0.00214646	-0.00532007	0
0.00207251	-0.00525578	0
0.00288495	-0.00536439	0
0.00279674	-0.00542865	0
0.00270842	-0.00547828	0
0.00261997	-0.00551349	0
0.00253141	-0.00553444	0
0.0024428	-0.00554125	0
0.00235419	-0.00553394	0
0.00226564	-0.00551249	0
0.00217719	-0.00547677	0
0.00208888	-0.00542664	0
0.00200068	-0.00536188	0
0.002957	-0.00547691	0
0.00285438	-0.00554179	0
0.00275162	-0.00559178	0
0.00264869	-0.00562719	0
0.00254565	-0.00564824	0
0.00244255	-0.00565507	0
0.00233945	-0.00564774	0
0.00223641	-0.00562619	0
0.00213349	-0.00559027	0
0.00203073	-0.00553977	0
0.00192813	-0.00547439	0
0.00302991	-0.00559735	0
0.0029127	-0.00566296	0
0.0027953	-0.00571338	0
0.00267773	-0.00574902	0
0.00256004	-0.00577018	0
0.0024423	-0.00577705	0
0.00232456	-0.00576968	0
0.00220687	-0.00574801	0
0.0020893	-0.00571187	0
0.00197191	-0.00566094	0
0.00185471	-0.00559482	0
0.00310378	-0.00572742	0
0.00297172	-0.0057938	0
0.00283945	-0.00584469	0
0.00270703	-0.00588058	0
0.00257455	-0.00590187	0
0.00244204	-0.00590878	0
0.00230954	-0.00590137	0
0.00217706	-0.00587957	0
0.00204464	-0.00584317	0
0.00191238	-0.00579178	0
0.00178033	-0.00572488	0
0.0031786	-0.005869	0
0.0030314	-0.00593623	0
0.00288394	-0.00598755	0
0.00273647	-0.00602372	0
0.0025891	-0.00604517	0
0.00244179	-0.00605212	0
0.00229448	-0.00604466	0
0.00214711	-0.0060227	0
0.00199965	-0.00598603	0
0.0018522	-0.00593419	0
0.001705	-0.00586646	0
0.00325477	-0.00602427	0
0.0030914	-0.00609228	0
0.00292834	-0.00614411	0
0.00276576	-0.00618063	0
0.00260354	-0.00620229	0
0.00244154	-0.00620932	0
0.00227953	-0.00620178	0
0.00211732	-0.00617961	0
0.00195473	-0.00614257	0
0.00179168	-0.00609023	0
0.00162832	-0.00602171	0
0.00075193	-0.00275187	-0.000885233
0.00106949	-0.00296312	-0.00109053
0.00146026	-0.00304738	-0.00106367
0.0018156	-0.00309598	-0.00105276
0.00213876	-0.0031211	-0.00104665
0.00244767	-0.0031289	-0.00104481
0.00275659	-0.00312082	-0.00104662
0.00307977	-0.00309542	-0.0010527
0.00343518	-0.00304654	-0.00106359
0.00382605	-0.00296197	-0.00109052
0.00414334	-0.00275016	-0.000885037
0.000932429	-0.00255704	-9.25398e-05
0.00120964	-0.0027045	-0.000242899
0.00153989	-0.00277892	-0.000237193
0.00185924	-0.00281199	-0.00022347
0.00215855	-0.00282973	-0.000214773
0.00244752	-0.0028352	-0.000211945
0.0027365	-0.00282947	-0.000214809
0.00303582	-0.00281147	-0.000223545
0.00335519	-0.00277814	-0.000237315
0.00368542	-0.00270338	-0.000243041
0.00396266	-0.00255549	-9.2684e-05
0.00110716	-0.00285436	-0.000123169
0.00137207	-0.00300274	-0.000217656
0.00164815	-0.00307662	-0.000232798
0.00192113	-0.00311182	-0.000231214
0.00218687	-0.00312931	-0.000227661
0.00244733	-0.0031347	-0.000226273
0.00270778	-0.00312901	-0.000227688
0.00297352	-0.00311122	-0.000231268
0.00324647	-0.0030757	-0.000232873
0.00352251	-0.00300145	-0.00021775
0.00378735	-0.00285263	-0.000123266
0.00131756	-0.00318261	-0.000141142
0.00153401	-0.00332386	-0.000197671
0.00176075	-0.00339884	-0.000215538
0.00199035	-0.0034389	-0.000219616
0.00221936	-0.00345886	-0.00021972
0.0024471	-0.0034649	-0.00021945
0.00267484	-0.00345852	-0.000219739
0.00290383	-0.00343821	-0.000219652
0.00313341	-0.00339778	-0.00021559
0.00336011	-0.0033224	-0.000197731
0.00357651	-0.00318071	-0.000141208
0.00149251	-0.00345725	-0.000146053
0.001675	-0.00358313	-0.000181431
0.00186353	-0.0036587	-0.000196756
0.00205645	-0.00370225	-0.000202633
0.00225136	-0.00372484	-0.000204507
0.00244686	-0.00373174	-0.000204902
0.00264236	-0.00372447	-0.000204521
0.00283725	-0.00370149	-0.000202659
0.00303015	-0.00365754	-0.000196792
0.00321865	-0.00358155	-0.000181473
0.00340111	-0.00345522	-0.000146099
0.00163992	-0.0036835	-0.000138279
0.00179475	-0.00379537	-0.000161333
0.0019535	-0.00386859	-0.00017333
0.00211586	-0.00391377	-0.000179104
0.00228067	-0.00393814	-0.000181556
0.00244662	-0.00394572	-0.000182219
0.00261256	-0.00393774	-0.000181566
0.00277735	-0.00391295	-0.000179123
0.0029397	-0.00386735	-0.000173357
0.00309843	-0.00379369	-0.000161365
0.00325323	-0.00368136	-0.000138312
0.00176647	-0.00387261	-0.000122616
0.0018979	-0.00397292	-0.000138156
0.00203173	-0.00404261	-0.00014728
0.00216821	-0.00408776	-0.000152281
0.00230675	-0.00411294	-0.000154698
0.00244637	-0.0041209	-0.000155411
0.00258598	-0.00411252	-0.000154705
0.00272451	-0.00408691	-0.000152296
0.00286098	-0.00404132	-0.000147301
0.0029948	-0.00397117	-0.00013818
0.0031262	-0.00387038	-0.000122641
0.00187766	-0.00403417	-0.000101817
0.00198836	-0.00412525	-0.00011258
0.00210049	-0.00419116	-0.000119453
0.00221442	-0.00423534	-0.000123548
0.00232985	-0.00426057	-0.000125677
0.00244612	-0.00426863	-0.000126334
0.00256238	-0.00426013	-0.000125683
0.0026778	-0.00423446	-0.00012356
0.00279172	-0.00418982	-0.00011947
0.00290385	-0.00412344	-0.0001126
0.00301453	-0.00403188	-0.000101837
0.0019775	-0.00417521	-7.76356e-05
0.0020693	-0.00425904	-8.52566e-05
0.00216192	-0.00432139	-9.04227e-05
0.0022557	-0.00436415	-9.36793e-05
0.00235049	-0.00438898	-9.54534e-05
0.00244586	-0.00439697	-9.60158e-05
0.00254124	-0.00438852	-9.54588e-05
0.00263602	-0.00436324	-9.36897e-05
0.00272979	-0.00432002	-9.04372e-05
0.00282241	-0.00425719	-8.5274e-05
0.0029142	-0.00417288	-7.76538e-05
0.00206892	-0.00430092	-5.11441e-05
0.00214314	-0.00437911	-5.66342e-05
0.00221781	-0.00443832	-6.05187e-05
0.00229318	-0.00447955	-6.3065e-05
0.00236921	-0.00450375	-6.44957e-05
0.00244561	-0.00451159	-6.49574e-05
0.00252201	-0.00450329	-6.45006e-05
0.00259803	-0.00447862	-6.30744e-05
0.0026734	-0.00443692	-6.05319e-05
0.00274806	-0.00437724	-5.66502e-05
0.00282228	-0.00429855	-5.11613e-05
0.0021541	-0.00441521	-2.30043e-05
0.00221171	-0.00448906	-2.70071e-05
0.00226956	-0.00454562	-2.99271e-05
0.00232782	-0.00458539	-3.18942e-05
0.00238647	-0.0046089	-3.30231e-05
0.00244535	-0.00461654	-3.33918e-05
0.00250424	-0.00460843	-3.30277e-05
0.00256289	-0.00458445	-3.1903e-05
0.00262114	-0.0045442	-2.99397e-05
0.00267898	-0.00448716	-2.70226e-05
0.0027366	-0.00441281	-2.30214e-05
0.00223465	-0.0045211	6.38207e-06
0.0022764	-0.00459164	3.44754e-06
0.00231825	-0.00464603	1.26057e-06
0.00236034	-0.00468451	-2.41163e-07
0.00240265	-0.00470736	-1.11579e-06
0.0024451	-0.00471479	-1.40398e-06
0.00248755	-0.00470688	-1.12024e-06
0.00252986	-0.00468355	-2.49848e-07
0.00257194	-0.00464459	1.2481e-06
0.0026138	-0.00458971	3.43197e-06
0.00265555	-0.00451867	6.36436e-06
0.00231177	-0.00462097	3.67819e-05
0.00233822	-0.00468901	3.46382e-05
0.00236471	-0.00474169	3.30167e-05
0.00239131	-0.00477909	3.18885e-05
0.00241804	-0.00480136	3.12246e-05
0.00244484	-0.00480861	3.10043e-05
0.00247165	-0.00480088	3.12201e-05
0.00249837	-0.00477813	3.18798e-05
0.00252498	-0.00474024	3.30041e-05
0.00255147	-0.00468707	3.46221e-05
0.00257791	-0.00461852	3.67633e-05
0.0023864	-0.00471677	6.80754e-05
0.00239797	-0.00478298	6.65359e-05
0.00240955	-0.00483434	6.53598e-05
0.00242118	-0.00487088	6.45338e-05
0.00243286	-0.00489267	6.40442e-05
0.00244459	-0.00489976	6.38807e-05
0.00245631	-0.00489218	6.40397e-05
0.002468	-0.00486991	6.45249e-05
0.00247963	-0.00483288	6.53467e-05
0.00249121	-0.00478102	6.65191e-05
0.00250278	-0.00471431	6.80555e-05
0.00245924	-0.00481014	0.000100221
0.00245625	-0.00487504	9.91593e-05
0.00245325	-0.00492543	9.83425e-05
0.00245026	-0.00496132	9.77651e-05
0.00244729	-0.00498273	9.74209e-05
0.00244433	-0.0049897	9.73052e-05
0.00244138	-0.00498224	9.74162e-05
0.00243841	-0.00496034	9.77559e-05
0.00243542	-0.00492396	9.83289e-05
0.00243242	-0.00487307	9.91416e-05
0.00242943	-0.00480767	0.0001002
0.00253086	-0.0049025	0.000133235
0.00251353	-0.00496653	0.000132564
0.00249618	-0.00501625	0.000132046
0.00247881	-0.00505167	0.000131677
0.00246145	-0.00507281	0.000131456
0.00244408	-0.00507969	0.000131381
0.00242671	-0.00507232	0.000131451
0.00240934	-0.00505069	0.000131668
0.00239198	-0.00501477	0.000132031
0.00237463	-0.00496455	0.000132546
0.0023573	-0.00490002	0.000133212
0.00260172	-0.00499514	0.000167176
0.00257019	-0.00505865	0.000166838
0.00253864	-0.00510796	0.000166575
0.00250705	-0.00514308	0.000166386
0.00247544	-0.00516404	0.000166272
0.00244382	-0.00517086	0.000166232
0.0024122	-0.00516355	0.000166266
0.00238059	-0.0051421	0.000166376
0.00234901	-0.00510648	0.00016656
0.00231746	-0.00505667	0.000166818
0.00228593	-0.00499265	0.000167152
0.00267221	-0.00508926	0.00020214
0.00262656	-0.00515257	0.000202096
0.00258088	-0.00520169	0.000202058
0.00253514	-0.00523666	0.000202028
0.00248937	-0.00525752	0.000202008
0.00244357	-0.0052643	0.000201999
0.00239777	-0.00525702	0.000202002
0.00235199	-0.00523567	0.000202017
0.00230626	-0.0052002	0.000202042
0.00226058	-0.00515058	0.000202075
0.00221494	-0.00508676	0.000202114
0.00274266	-0.00518604	0.000238256
0.00268291	-0.00524941	0.00023848
0.0026231	-0.00529853	0.000238647
0.00256322	-0.00533346	0.000238761
0.00250328	-0.00535429	0.000238826
0.00244331	-0.00536106	0.000238845
0.00238334	-0.00535379	0.00023882
0.00232341	-0.00533247	0.00023875
0.00226353	-0.00529703	0.000238631
0.00220373	-0.00524742	0.000238459
0.00214398	-0.00518354	0.000238229
0.00281335	-0.00528668	0.000275685
0.00273946	-0.00535034	0.000276162
0.00266548	-0.0053996	0.00027652
0.00259141	-0.00543461	0.000276766
0.00251726	-0.00545546	0.000276908
0.00244306	-0.00546223	0.000276953
0.00236886	-0.00545496	0.000276903
0.00229471	-0.00543361	0.000276755
0.00222064	-0.0053981	0.000276503
0.00214668	-0.00534834	0.00027614
0.00207279	-0.00528418	0.000275657
0.00288455	-0.00539244	0.000314623
0.00279642	-0.00545657	0.000315345
0.00270817	-0.00550611	0.000315883
0.0026198	-0.00554125	0.000316252
0.00253133	-0.00556217	0.000316465
0.00244281	-0.00556897	0.000316532
0.00235428	-0.00556167	0.000316459
0.00226581	-0.00554025	0.00031624
0.00217745	-0.00550461	0.000315866
0.00208921	-0.00545457	0.000315321
0.00200109	-0.00538993	0.000314593
0.00295645	-0.00550467	0.000355306
0.00285394	-0.00556943	0.00035627
0.00275129	-0.00561933	0.000356979
0.00264847	-0.00565467	0.000357458
0.00254554	-0.00567568	0.000357733
0.00244255	-0.0056825	0.00035782
0.00233956	-0.00567518	0.000357727
0.00223664	-0.00565366	0.000357446
0.00213383	-0.00561782	0.000356961
0.00203118	-0.00556741	0.000356245
0.00192868	-0.00550215	0.000355275
0.00302921	-0.00562487	0.000398021
0.00291215	-0.00569035	0.000399226
0.00279488	-0.00574068	0.000400092
0.00267745	-0.00577625	0.000400664
0.0025599	-0.00579738	0.000400986
0.0024423	-0.00580423	0.000401088
0.0023247	-0.00579687	0.00040098
0.00220716	-0.00577524	0.000400652
0.00208973	-0.00573916	0.000400074
0.00197247	-0.00568833	0.000399201
0.00185541	-0.00562234	0.00039799
0.00310294	-0.00575472	0.000443128
0.00297104	-0.00582097	0.000444567
0.00283894	-0.00587176	0.000445561
0.0027067	-0.00590759	0.000446192
0.00257438	-0.00592884	0.000446537
0.00244205	-0.00593573	0.000446646
0.00230971	-0.00592833	0.000446532
0.0021774	-0.00590658	0.00044618
0.00204516	-0.00587024	0.000445542
0.00191306	-0.00581895	0.000444542
0.00178118	-0.00575218	0.000443096
0.0031776	-0.0058961	0.000491085
0.0030306	-0.00596318	0.000492737
0.00288334	-0.00601441	0.000493784
0.00273608	-0.0060505	0.000494412
0.0025889	-0.00607191	0.000494746
0.00244179	-0.00607886	0.000494849
0.00229468	-0.0060714	0.00049474
0.00214751	-0.00604949	0.000494401
0.00200025	-0.00601288	0.000493766
0.001853	-0.00596115	0.000492713
0.00170601	-0.00589355	0.000491053
0.0032536	-0.00605113	0.0005426
0.00309047	-0.006119	0.000544281
0.00292766	-0.00617072	0.000545215
0.0027653	-0.00620718	0.00054575
0.00260332	-0.0062288	0.000546026
0.00244154	-0.00623581	0.000546109
0.00227976	-0.00622829	0.00054602
0.00211778	-0.00620616	0.000545739
0.00195543	-0.00616919	0.000545198
0.00179261	-0.00611696	0.000544257
0.0016295	-0.00604858	0.000542569
0.00119782	-0.00381718	-0.00148456
0.00137804	-0.00386571	-0.00167169
0.00161381	-0.003945	-0.00170385
0.00189032	-0.00399386	-0.00169694
0.00217012	-0.00402116	-0.00169046
0.00244769	-0.00402977	-0.00168801
0.00272526	-0.00402082	-0.00169043
0.00300508	-0.00399316	-0.00169688
0.00328161	-0.00394393	-0.00170377
0.00351736	-0.00386423	-0.00167157
0.00369763	-0.00381531	-0.00148442
0.00121159	-0.00368122	-0.000768101
0.00144084	-0.00376904	-0.000942918
0.00167588	-0.00384593	-0.000987502
0.00193025	-0.00389391	-0.000987285
0.00218923	-0.00391885	-0.000982324
0.00244751	-0.00392665	-0.000980177
0.00270579	-0.0039185	-0.000982343
0.00296478	-0.00389321	-0.000987325
0.00321914	-0.00384485	-0.000987561
0.00345417	-0.00376757	-0.000942989
0.00368337	-0.00367931	-0.000768146
0.00131404	-0.00358819	-0.000475825
0.00152208	-0.0036898	-0.000598859
0.00174568	-0.00376059	-0.000638802
0.00197771	-0.00380471	-0.00064613
0.00221235	-0.00382782	-0.000645231
0.00244731	-0.00383494	-0.000644308
0.00268226	-0.00382747	-0.000645265
0.00291689	-0.003804	-0.000646196
0.00314891	-0.00375951	-0.000638896
0.00337249	-0.00368831	-0.000598968
0.0035805	-0.00358626	-0.000475942
0.0014315	-0.00366292	-0.000397813
0.00162412	-0.00377009	-0.000483154
0.00182419	-0.00384081	-0.000517682
0.00202991	-0.00388386	-0.0005292
0.00223809	-0.00390692	-0.000532047
0.00244709	-0.00391405	-0.00053244
0.00265607	-0.00390655	-0.000532075
0.00286424	-0.00388311	-0.000529255
0.00306995	-0.00383966	-0.000517758
0.00326999	-0.00376853	-0.000483246
0.00346258	-0.00366091	-0.000397911
0.00156059	-0.00379528	-0.000352667
0.00172976	-0.00390052	-0.000410528
0.00190423	-0.00397046	-0.000438548
0.00208296	-0.0040141	-0.000450771
0.00226434	-0.00403783	-0.000455407
0.00244685	-0.00404524	-0.000456553
0.00262936	-0.00403743	-0.000455429
0.00281073	-0.0040133	-0.000450814
0.00298944	-0.00396925	-0.000438608
0.00316388	-0.00389888	-0.000410599
0.00333303	-0.00379318	-0.000352743
0.00168244	-0.00393829	-0.00031159
0.00182953	-0.00403738	-0.000351237
0.00197985	-0.00410575	-0.000373153
0.00213348	-0.00414974	-0.000384348
0.00228946	-0.00417417	-0.000389402
0.00244661	-0.00418188	-0.000390829
0.00260376	-0.00417376	-0.00038942
0.00275973	-0.00414891	-0.000384381
0.00291334	-0.00410449	-0.0003732
0.00306365	-0.00403567	-0.000351293
0.00321071	-0.00393612	-0.000311648
0.00179422	-0.00407604	-0.000266786
0.0019207	-0.00416817	-0.000294403
0.00204919	-0.00423406	-0.000311206
0.00218001	-0.00427774	-0.000320721
0.00231269	-0.0043025	-0.000325453
0.00244636	-0.00431038	-0.000326874
0.00258003	-0.00430207	-0.000325467
0.0027127	-0.00427688	-0.000320749
0.00284351	-0.00423275	-0.000311243
0.002972	-0.00416641	-0.000294447
0.00309845	-0.0040738	-0.000266833
0.00189641	-0.00420414	-0.000217635
0.00200376	-0.00428983	-0.000237209
0.00211232	-0.00435286	-0.000249989
0.00222245	-0.00439566	-0.000257751
0.00233391	-0.00442032	-0.000261852
0.00244611	-0.00442824	-0.000263129