# vtk DataFile Version 4.1
vtk output
ASCII
DATASET UNSTRUCTURED_GRID

POINTS	14586	float
0	0	0	
0.04	0	0	
0.08	0	0	
0.12	0	0	
0.16	0	0	
0.2	0	0	
0.24	0	0	
0.28	0	0	
0.32	0	0	
0.36	0	0	
0.4	0	0	
0	0.04	0	
0.04	0.04	0	
0.08	0.04	0	
0.12	0.04	0	
0.16	0.04	0	
0.2	0.04	0	
0.24	0.04	0	
0.28	0.04	0	
0.32	0.04	0	
0.36	0.04	0	
0.4	0.04	0	
0	0.08	0	
0.04	0.08	0	
0.08	0.08	0	
0.12	0.08	0	
0.16	0.08	0	
0.2	0.08	0	
0.24	0.08	0	
0.28	0.08	0	
0.32	0.08	0	
0.36	0.08	0	
0.4	0.08	0	
0	0.12	0	
0.04	0.12	0	
0.08	0.12	0	
0.12	0.12	0	
0.16	0.12	0	
0.2	0.12	0	
0.24	0.12	0	
0.28	0.12	0	
0.32	0.12	0	
0.36	0.12	0	
0.4	0.12	0	
0	0.16	0	
0.04	0.16	0	
0.08	0.16	0	
0.12	0.16	0	
0.16	0.16	0	
0.2	0.16	0	
0.24	0.16	0	
0.28	0.16	0	
0.32	0.16	0	
0.36	0.16	0	
0.4	0.16	0	
0	0.2	0	
0.04	0.2	0	
0.08	0.2	0	
0.12	0.2	0	
0.16	0.2	0	
0.2	0.2	0	
0.24	0.2	0	
0.28	0.2	0	
0.32	0.2	0	
0.36	0.2	0	
0.4	0.2	0	
0	0.24	0	
0.04	0.24	0	
0.08	0.24	0	
0.12	0.24	0	
0.16	0.24	0	
0.2	0.24	0	
0.24	0.24	0	
0.28	0.24	0	
0.32	0.24	0	
0.36	0.24	0	
0.4	0.24	0	
0	0.28	0	
0.04	0.28	0	
0.08	0.28	0	
0.12	0.28	0	
0.16	0.28	0	
0.2	0.28	0	
0.24	0.28	0	
0.28	0.28	0	
0.32	0.28	0	
0.36	0.28	0	
0.4	0.28	0	
0	0.32	0	
0.04	0.32	0	
0.08	0.32	0	
0.12	0.32	0	
0.16	0.32	0	
0.2	0.32	0	
0.24	0.32	0	
0.28	0.32	0	
0.32	0.32	0	
0.36	0.32	0	
0.4	0.32	0	
0	0.36	0	
0.04	0.36	0	
0.08	0.36	0	
0.12	0.36	0	
0.16	0.36	0	
0.2	0.36	0	
0.24	0.36	0	
0.28	0.36	0	
0.32	0.36	0	
0.36	0.36	0	
0.4	0.36	0	
0	0.4	0	
0.04	0.4	0	
0.08	0.4	0	
0.12	0.4	0	
0.16	0.4	0	
0.2	0.4	0	
0.24	0.4	0	
0.28	0.4	0	
0.32	0.4	0	
0.36	0.4	0	
0.4	0.4	0	
0	0.44	0	
0.04	0.44	0	
0.08	0.44	0	
0.12	0.44	0	
0.16	0.44	0	
0.2	0.44	0	
0.24	0.44	0	
0.28	0.44	0	
0.32	0.44	0	
0.36	0.44	0	
0.4	0.44	0	
0	0.48	0	
0.04	0.48	0	
0.08	0.48	0	
0.12	0.48	0	
0.16	0.48	0	
0.2	0.48	0	
0.24	0.48	0	
0.28	0.48	0	
0.32	0.48	0	
0.36	0.48	0	
0.4	0.48	0	
0	0.52	0	
0.04	0.52	0	
0.08	0.52	0	
0.12	0.52	0	
0.16	0.52	0	
0.2	0.52	0	
0.24	0.52	0	
0.28	0.52	0	
0.32	0.52	0	
0.36	0.52	0	
0.4	0.52	0	
0	0.56	0	
0.04	0.56	0	
0.08	0.56	0	
0.12	0.56	0	
0.16	0.56	0	
0.2	0.56	0	
0.24	0.56	0	
0.28	0.56	0	
0.32	0.56	0	
0.36	0.56	0	
0.4	0.56	0	
0	0.6	0	
0.04	0.6	0	
0.08	0.6	0	
0.12	0.6	0	
0.16	0.6	0	
0.2	0.6	0	
0.24	0.6	0	
0.28	0.6	0	
0.32	0.6	0	
0.36	0.6	0	
0.4	0.6	0	
0	0.64	0	
0.04	0.64	0	
0.08	0.64	0	
0.12	0.64	0	
0.16	0.64	0	
0.2	0.64	0	
0.24	0.64	0	
0.28	0.64	0	
0.32	0.64	0	
0.36	0.64	0	
0.4	0.64	0	
0	0.68	0	
0.04	0.68	0	
0.08	0.68	0	
0.12	0.68	0	
0.16	0.68	0	
0.2	0.68	0	
0.24	0.68	0	
0.28	0.68	0	
0.32	0.68	0	
0.36	0.68	0	
0.4	0.68	0	
0	0.72	0	
0.04	0.72	0	
0.08	0.72	0	
0.12	0.72	0	
0.16	0.72	0	
0.2	0.72	0	
0.24	0.72	0	
0.28	0.72	0	
0.32	0.72	0	
0.36	0.72	0	
0.4	0.72	0	
0	0.76	0	
0.04	0.76	0	
0.08	0.76	0	
0.12	0.76	0	
0.16	0.76	0	
0.2	0.76	0	
0.24	0.76	0	
0.28	0.76	0	
0.32	0.76	0	
0.36	0.76	0	
0.4	0.76	0	
0	0.8	0	
0.04	0.8	0	
0.08	0.8	0	
0.12	0.8	0	
0.16	0.8	0	
0.2	0.8	0	
0.24	0.8	0	
0.28	0.8	0	
0.32	0.8	0	
0.36	0.8	0	
0.4	0.8	0	
0	0.84	0	
0.04	0.84	0	
0.08	0.84	0	
0.12	0.84	0	
0.16	0.84	0	
0.2	0.84	0	
0.24	0.84	0	
0.28	0.84	0	
0.32	0.84	0	
0.36	0.84	0	
0.4	0.84	0	
0	0.88	0	
0.04	0.88	0	
0.08	0.88	0	
0.12	0.88	0	
0.16	0.88	0	
0.2	0.88	0	
0.24	0.88	0	
0.28	0.88	0	
0.32	0.88	0	
0.36	0.88	0	
0.4	0.88	0	
0	0.92	0	
0.04	0.92	0	
0.08	0.92	0	
0.12	0.92	0	
0.16	0.92	0	
0.2	0.92	0	
0.24	0.92	0	
0.28	0.92	0	
0.32	0.92	0	
0.36	0.92	0	
0.4	0.92	0	
0	0.96	0	
0.04	0.96	0	
0.08	0.96	0	
0.12	0.96	0	
0.16	0.96	0	
0.2	0.96	0	
0.24	0.96	0	
0.28	0.96	0	
0.32	0.96	0	
0.36	0.96	0	
0.4	0.96	0	
0	1	0	
0.04	1	0	
0.08	1	0	
0.12	1	0	
0.16	1	0	
0.2	1	0	
0.24	1	0	
0.28	1	0	
0.32	1	0	
0.36	1	0	
0.4	1	0	
0	0	0.04	
0.04	0	0.04	
0.08	0	0.04	
0.12	0	0.04	
0.16	0	0.04	
0.2	0	0.04	
0.24	0	0.04	
0.28	0	0.04	
0.32	0	0.04	
0.36	0	0.04	
0.4	0	0.04	
0	0.04	0.04	
0.04	0.04	0.04	
0.08	0.04	0.04	
0.12	0.04	0.04	
0.16	0.04	0.04	
0.2	0.04	0.04	
0.24	0.04	0.04	
0.28	0.04	0.04	
0.32	0.04	0.04	
0.36	0.04	0.04	
0.4	0.04	0.04	
0	0.08	0.04	
0.04	0.08	0.04	
0.08	0.08	0.04	
0.12	0.08	0.04	
0.16	0.08	0.04	
0.2	0.08	0.04	
0.24	0.08	0.04	
0.28	0.08	0.04	
0.32	0.08	0.04	
0.36	0.08	0.04	
0.4	0.08	0.04	
0	0.12	0.04	
0.04	0.12	0.04	
0.08	0.12	0.04	
0.12	0.12	0.04	
0.16	0.12	0.04	
0.2	0.12	0.04	
0.24	0.12	0.04	
0.28	0.12	0.04	
0.32	0.12	0.04	
0.36	0.12	0.04	
0.4	0.12	0.04	
0	0.16	0.04	
0.04	0.16	0.04	
0.08	0.16	0.04	
0.12	0.16	0.04	
0.16	0.16	0.04	
0.2	0.16	0.04	
0.24	0.16	0.04	
0.28	0.16	0.04	
0.32	0.16	0.04	
0.36	0.16	0.04	
0.4	0.16	0.04	
0	0.2	0.04	
0.04	0.2	0.04	
0.08	0.2	0.04	
0.12	0.2	0.04	
0.16	0.2	0.04	
0.2	0.2	0.04	
0.24	0.2	0.04	
0.28	0.2	0.04	
0.32	0.2	0.04	
0.36	0.2	0.04	
0.4	0.2	0.04	
0	0.24	0.04	
0.04	0.24	0.04	
0.08	0.24	0.04	
0.12	0.24	0.04	
0.16	0.24	0.04	
0.2	0.24	0.04	
0.24	0.24	0.04	
0.28	0.24	0.04	
0.32	0.24	0.04	
0.36	0.24	0.04	
0.4	0.24	0.04	
0	0.28	0.04	
0.04	0.28	0.04	
0.08	0.28	0.04	
0.12	0.28	0.04	
0.16	0.28	0.04	
0.2	0.28	0.04	
0.24	0.28	0.04	
0.28	0.28	0.04	
0.32	0.28	0.04	
0.36	0.28	0.04	
0.4	0.28	0.04	
0	0.32	0.04	
0.04	0.32	0.04	
0.08	0.32	0.04	
0.12	0.32	0.04	
0.16	0.32	0.04	
0.2	0.32	0.04	
0.24	0.32	0.04	
0.28	0.32	0.04	
0.32	0.32	0.04	
0.36	0.32	0.04	
0.4	0.32	0.04	
0	0.36	0.04	
0.04	0.36	0.04	
0.08	0.36	0.04	
0.12	0.36	0.04	
0.16	0.36	0.04	
0.2	0.36	0.04	
0.24	0.36	0.04	
0.28	0.36	0.04	
0.32	0.36	0.04	
0.36	0.36	0.04	
0.4	0.36	0.04	
0	0.4	0.04	
0.04	0.4	0.04	
0.08	0.4	0.04	
0.12	0.4	0.04	
0.16	0.4	0.04	
0.2	0.4	0.04	
0.24	0.4	0.04	
0.28	0.4	0.04	
0.32	0.4	0.04	
0.36	0.4	0.04	
0.4	0.4	0.04	
0	0.44	0.04	
0.04	0.44	0.04	
0.08	0.44	0.04	
0.12	0.44	0.04	
0.16	0.44	0.04	
0.2	0.44	0.04	
0.24	0.44	0.04	
0.28	0.44	0.04	
0.32	0.44	0.04	
0.36	0.44	0.04	
0.4	0.44	0.04	
0	0.48	0.04	
0.04	0.48	0.04	
0.08	0.48	0.04	
0.12	0.48	0.04	
0.16	0.48	0.04	
0.2	0.48	0.04	
0.24	0.48	0.04	
0.28	0.48	0.04	
0.32	0.48	0.04	
0.36	0.48	0.04	
0.4	0.48	0.04	
0	0.52	0.04	
0.04	0.52	0.04	
0.08	0.52	0.04	
0.12	0.52	0.04	
0.16	0.52	0.04	
0.2	0.52	0.04	
0.24	0.52	0.04	
0.28	0.52	0.04	
0.32	0.52	0.04	
0.36	0.52	0.04	
0.4	0.52	0.04	
0	0.56	0.04	
0.04	0.56	0.04	
0.08	0.56	0.04	
0.12	0.56	0.04	
0.16	0.56	0.04	
0.2	0.56	0.04	
0.24	0.56	0.04	
0.28	0.56	0.04	
0.32	0.56	0.04	
0.36	0.56	0.04	
0.4	0.56	0.04	
0	0.6	0.04	
0.04	0.6	0.04	
0.08	0.6	0.04	
0.12	0.6	0.04	
0.16	0.6	0.04	
0.2	0.6	0.04	
0.24	0.6	0.04	
0.28	0.6	0.04	
0.32	0.6	0.04	
0.36	0.6	0.04	
0.4	0.6	0.04	
0	0.64	0.04	
0.04	0.64	0.04	
0.08	0.64	0.04	
0.12	0.64	0.04	
0.16	0.64	0.04	
0.2	0.64	0.04	
0.24	0.64	0.04	
0.28	0.64	0.04	
0.32	0.64	0.04	
0.36	0.64	0.04	
0.4	0.64	0.04	
0	0.68	0.04	
0.04	0.68	0.04	
0.08	0.68	0.04	
0.12	0.68	0.04	
0.16	0.68	0.04	
0.2	0.68	0.04	
0.24	0.68	0.04	
0.28	0.68	0.04	
0.32	0.68	0.04	
0.36	0.68	0.04	
0.4	0.68	0.04	
0	0.72	0.04	
0.04	0.72	0.04	
0.08	0.72	0.04	
0.12	0.72	0.04	
0.16	0.72	0.04	
0.2	0.72	0.04	
0.24	0.72	0.04	
0.28	0.72	0.04	
0.32	0.72	0.04	
0.36	0.72	0.04	
0.4	0.72	0.04	
0	0.76	0.04	
0.04	0.76	0.04	
0.08	0.76	0.04	
0.12	0.76	0.04	
0.16	0.76	0.04	
0.2	0.76	0.04	
0.24	0.76	0.04	
0.28	0.76	0.04	
0.32	0.76	0.04	
0.36	0.76	0.04	
0.4	0.76	0.04	
0	0.8	0.04	
0.04	0.8	0.04	
0.08	0.8	0.04	
0.12	0.8	0.04	
0.16	0.8	0.04	
0.2	0.8	0.04	
0.24	0.8	0.04	
0.28	0.8	0.04	
0.32	0.8	0.04	
0.36	0.8	0.04	
0.4	0.8	0.04	
0	0.84	0.04	
0.04	0.84	0.04	
0.08	0.84	0.04	
0.12	0.84	0.04	
0.16	0.84	0.04	
0.2	0.84	0.04	
0.24	0.84	0.04	
0.28	0.84	0.04	
0.32	0.84	0.04	
0.36	0.84	0.04	
0.4	0.84	0.04	
0	0.88	0.04	
0.04	0.88	0.04	
0.08	0.88	0.04	
0.12	0.88	0.04	
0.16	0.88	0.04	
0.2	0.88	0.04	
0.24	0.88	0.04	
0.28	0.88	0.04	
0.32	0.88	0.04	
0.36	0.88	0.04	
0.4	0.88	0.04	
0	0.92	0.04	
0.04	0.92	0.04	
0.08	0.92	0.04	
0.12	0.92	0.04	
0.16	0.92	0.04	
0.2	0.92	0.04	
0.24	0.92	0.04	
0.28	0.92	0.04	
0.32	0.92	0.04	
0.36	0.92	0.04	
0.4	0.92	0.04	
0	0.96	0.04	
0.04	0.96	0.04	
0.08	0.96	0.04	
0.12	0.96	0.04	
0.16	0.96	0.04	
0.2	0.96	0.04	
0.24	0.96	0.04	
0.28	0.96	0.04	
0.32	0.96	0.04	
0.36	0.96	0.04	
0.4	0.96	0.04	
0	1	0.04	
0.04	1	0.04	
0.08	1	0.04	
0.12	1	0.04	
0.16	1	0.04	
0.2	1	0.04	
0.24	1	0.04	
0.28	1	0.04	
0.32	1	0.04	
0.36	1	0.04	
0.4	1	0.04	
0	0	0.08	
0.04	0	0.08	
0.08	0	0.08	
0.12	0	0.08	
0.16	0	0.08	
0.2	0	0.08	
0.24	0	0.08	
0.28	0	0.08	
0.32	0	0.08	
0.36	0	0.08	
0.4	0	0.08	
0	0.04	0.08	
0.04	0.04	0.08	
0.08	0.04	0.08	
0.12	0.04	0.08	
0.16	0.04	0.08	
0.2	0.04	0.08	
0.24	0.04	0.08	
0.28	0.04	0.08	
0.32	0.04	0.08	
0.36	0.04	0.08	
0.4	0.04	0.08	
0	0.08	0.08	
0.04	0.08	0.08	
0.08	0.08	0.08	
0.12	0.08	0.08	
0.16	0.08	0.08	
0.2	0.08	0.08	
0.24	0.08	0.08	
0.28	0.08	0.08	
0.32	0.08	0.08	
0.36	0.08	0.08	
0.4	0.08	0.08	
0	0.12	0.08	
0.04	0.12	0.08	
0.08	0.12	0.08	
0.12	0.12	0.08	
0.16	0.12	0.08	
0.2	0.12	0.08	
0.24	0.12	0.08	
0.28	0.12	0.08	
0.32	0.12	0.08	
0.36	0.12	0.08	
0.4	0.12	0.08	
0	0.16	0.08	
0.04	0.16	0.08	
0.08	0.16	0.08	
0.12	0.16	0.08	
0.16	0.16	0.08	
0.2	0.16	0.08	
0.24	0.16	0.08	
0.28	0.16	0.08	
0.32	0.16	0.08	
0.36	0.16	0.08	
0.4	0.16	0.08	
0	0.2	0.08	
0.04	0.2	0.08	
0.08	0.2	0.08	
0.12	0.2	0.08	
0.16	0.2	0.08	
0.2	0.2	0.08	
0.24	0.2	0.08	
0.28	0.2	0.08	
0.32	0.2	0.08	
0.36	0.2	0.08	
0.4	0.2	0.08	
0	0.24	0.08	
0.04	0.24	0.08	
0.08	0.24	0.08	
0.12	0.24	0.08	
0.16	0.24	0.08	
0.2	0.24	0.08	
0.24	0.24	0.08	
0.28	0.24	0.08	
0.32	0.24	0.08	
0.36	0.24	0.08	
0.4	0.24	0.08	
0	0.28	0.08	
0.04	0.28	0.08	
0.08	0.28	0.08	
0.12	0.28	0.08	
0.16	0.28	0.08	
0.2	0.28	0.08	
0.24	0.28	0.08	
0.28	0.28	0.08	
0.32	0.28	0.08	
0.36	0.28	0.08	
0.4	0.28	0.08	
0	0.32	0.08	
0.04	0.32	0.08	
0.08	0.32	0.08	
0.12	0.32	0.08	
0.16	0.32	0.08	
0.2	0.32	0.08	
0.24	0.32	0.08	
0.28	0.32	0.08	
0.32	0.32	0.08	
0.36	0.32	0.08	
0.4	0.32	0.08	
0	0.36	0.08	
0.04	0.36	0.08	
0.08	0.36	0.08	
0.12	0.36	0.08	
0.16	0.36	0.08	
0.2	0.36	0.08	
0.24	0.36	0.08	
0.28	0.36	0.08	
0.32	0.36	0.08	
0.36	0.36	0.08	
0.4	0.36	0.08	
0	0.4	0.08	
0.04	0.4	0.08	
0.08	0.4	0.08	
0.12	0.4	0.08	
0.16	0.4	0.08	
0.2	0.4	0.08	
0.24	0.4	0.08	
0.28	0.4	0.08	
0.32	0.4	0.08	
0.36	0.4	0.08	
0.4	0.4	0.08	
0	0.44	0.08	
0.04	0.44	0.08	
0.08	0.44	0.08	
0.12	0.44	0.08	
0.16	0.44	0.08	
0.2	0.44	0.08	
0.24	0.44	0.08	
0.28	0.44	0.08	
0.32	0.44	0.08	
0.36	0.44	0.08	
0.4	0.44	0.08	
0	0.48	0.08	
0.04	0.48	0.08	
0.08	0.48	0.08	
0.12	0.48	0.08	
0.16	0.48	0.08	
0.2	0.48	0.08	
[...]
POINT_DATA	14586
VECTORS u0 float
0	0	0
-4.88033e-05	0	0
-7.10673e-05	0	0
-7.34237e-05	0	0
-6.77552e-05	0	0
-5.92152e-05	0	0
-5.06446e-05	0	0
-4.58419e-05	0	0
-5.00026e-05	0	0
-8.05843e-05	0	0
-0.000167705	0	0
-2.06894e-05	0.000380135	0
-5.81226e-05	0.000390357	0
-7.17769e-05	0.000385192	0
-7.19849e-05	0.000381277	0
-6.60625e-05	0.000378803	0
-5.75342e-05	0.000377175	0
-4.91149e-05	0.000376616	0
-4.34068e-05	0.000376936	0
-4.46636e-05	0.000378949	0
-6.02187e-05	0.000383961	0
-8.82952e-05	0.000363926	0
-7.73107e-05	0.000601368	0
-7.55786e-05	0.000609916	0
-7.57773e-05	0.000603443	0
-7.15227e-05	0.00059734	0
-6.38931e-05	0.000593357	0
-5.46892e-05	0.000590855	0
-4.52797e-05	0.000589885	0
-3.7923e-05	0.000590753	0
-3.40646e-05	0.000593775	0
-3.19048e-05	0.000595092	0
-2.93933e-05	0.000579735	0
-9.37422e-05	0.000746919	0
-8.61597e-05	0.000749171	0
-7.82631e-05	0.00074346	0
-7.02995e-05	0.000736841	0
-6.14134e-05	0.000732216	0
-5.14452e-05	0.000728878	0
-4.17971e-05	0.000728218	0
-3.27776e-05	0.000729002	0
-2.38751e-05	0.000731038	0
-1.52752e-05	0.000731282	0
-6.2153e-06	0.00072336	0
-9.86368e-05	0.000859691	0
-8.85173e-05	0.000857249	0
-7.86727e-05	0.000850412	0
-6.8798e-05	0.000844075	0
-5.8705e-05	0.000838906	0
-4.84958e-05	0.000835169	0
-3.81941e-05	0.000834821	0
-2.77002e-05	0.000834754	0
-1.72359e-05	0.000836842	0
-6.77357e-06	0.000837905	0
4.51102e-06	0.000834863	0
-9.64864e-05	0.000952475	0
-8.60041e-05	0.000946261	0
-7.56812e-05	0.000938458	0
-6.5526e-05	0.000931895	0
-5.5307e-05	0.000925995	0
-4.52462e-05	0.000922621	0
-3.5194e-05	0.000921642	0
-2.48271e-05	0.000921658	0
-1.42847e-05	0.000924095	0
-3.18737e-06	0.000926173	0
8.07571e-06	0.000926521	0
-8.99446e-05	0.00103091	0
-8.00902e-05	0.00102226	0
-7.05264e-05	0.00101324	0
-6.0953e-05	0.00100616	0
-5.16635e-05	0.000999817	0
-4.24142e-05	0.00099703	0
-3.27442e-05	0.000994798	0
-2.29045e-05	0.000996044	0
-1.33211e-05	0.000998103	0
-3.13928e-06	0.0010015	0
7.10555e-06	0.00100457	0
-8.01261e-05	0.0010984	0
-7.18802e-05	0.00108754	0
-6.36066e-05	0.00107796	0
-5.56005e-05	0.00107008	0
-4.7619e-05	0.00106355	0
-3.93298e-05	0.00106054	0
-3.09962e-05	0.00105823	0
-2.276e-05	0.0010601	0
-1.41594e-05	0.00106213	0
-5.55378e-06	0.00106675	0
3.14033e-06	0.00107207	0
-6.84314e-05	0.00115684	0
-6.20018e-05	0.001144	0
-5.57942e-05	0.00113381	0
-4.91937e-05	0.00112495	0
-4.26839e-05	0.00111907	0
-3.6253e-05	0.00111496	0
-2.9945e-05	0.00111379	0
-2.33194e-05	0.00111474	0
-1.64729e-05	0.00111816	0
-9.81935e-06	0.00112318	0
-2.92587e-06	0.00113024	0
-5.52882e-05	0.00120687	0
-5.0957e-05	0.00119286	0
-4.63742e-05	0.00118164	0
-4.20832e-05	0.00117222	0
-3.80958e-05	0.00116656	0
-3.37365e-05	0.00116183	0
-2.92864e-05	0.00116157	0
-2.44069e-05	0.00116147	0
-1.95516e-05	0.00116635	0
-1.51102e-05	0.00117192	0
-1.06428e-05	0.0011803	0
-4.0951e-05	0.00124944	0
-3.89124e-05	0.00123449	0
-3.68528e-05	0.00122222	0
-3.50351e-05	0.00121299	0
-3.28815e-05	0.00120645	0
-3.06582e-05	0.00120198	0
-2.84183e-05	0.00120159	0
-2.64976e-05	0.00120221	0
-2.43419e-05	0.00120681	0
-2.14749e-05	0.00121351	0
-1.94861e-05	0.00122311	0
-2.5855e-05	0.00128505	0
-2.64344e-05	0.00126904	0
-2.6731e-05	0.0012564	0
-2.73622e-05	0.00124707	0
-2.76194e-05	0.00123955	0
-2.81481e-05	0.00123583	0
-2.83069e-05	0.00123456	0
-2.82587e-05	0.00123663	0
-2.8558e-05	0.00124088	0
-2.89417e-05	0.00124823	0
-2.89855e-05	0.00125876	0
-1.03468e-05	0.00131383	0
-1.3371e-05	0.0012972	0
-1.65188e-05	0.00128419	0
-1.92718e-05	0.00127434	0
-2.20935e-05	0.00126665	0
-2.53583e-05	0.00126354	0
-2.84216e-05	0.00126131	0
-3.09798e-05	0.00126394	0
-3.3602e-05	0.00126878	0
-3.64443e-05	0.00127644	0
-3.93645e-05	0.00128751	0
5.70042e-06	0.00133582	0
1.78202e-07	0.00131898	0
-5.52066e-06	0.00130565	0
-1.13795e-05	0.00129498	0
-1.71157e-05	0.00128771	0
-2.25193e-05	0.00128423	0
-2.79762e-05	0.00128225	0
-3.37912e-05	0.001285	0
-3.9367e-05	0.00128972	0
-4.46583e-05	0.00129801	0
-5.0198e-05	0.00130974	0
2.2238e-05	0.00135146	0
1.374e-05	0.00133415	0
5.40849e-06	0.00132069	0
-2.98218e-06	0.00130967	0
-1.16852e-05	0.00130289	0
-2.00292e-05	0.00129786	0
-2.80714e-05	0.00129757	0
-3.66459e-05	0.00129975	0
-4.49953e-05	0.00130437	0
-5.32996e-05	0.00131318	0
-6.13164e-05	0.00132546	0
3.89542e-05	0.00136103	0
2.76544e-05	0.00134327	0
1.63609e-05	0.0013294	0
5.17229e-06	0.00131832	0
-6.04165e-06	0.00131197	0
-1.73527e-05	0.0013062	0
-2.8697e-05	0.00130651	0
-3.97328e-05	0.00130801	0
-5.06961e-05	0.00131343	0
-6.19339e-05	0.00132219	0
-7.28006e-05	0.00133462	0
5.59131e-05	0.00136421	0
4.17681e-05	0.0013465	0
2.78173e-05	0.00133233	0
1.37327e-05	0.00132138	0
-2.90568e-07	0.00131434	0
-1.47229e-05	0.00130998	0
-2.92094e-05	0.00130906	0
-4.29315e-05	0.00131077	0
-5.70229e-05	0.00131661	0
-7.0859e-05	0.00132532	0
-8.45768e-05	0.00133776	0
7.31135e-05	0.00136146	0
5.63244e-05	0.00134377	0
3.93768e-05	0.00132967	0
2.19755e-05	0.00131923	0
5.05411e-06	0.00131078	0
-1.18929e-05	0.00130799	0
-2.90022e-05	0.00130554	0
-4.6394e-05	0.00130874	0
-6.35821e-05	0.00131365	0
-7.98209e-05	0.00132243	0
-9.65252e-05	0.00133496	0
9.04794e-05	0.00135349	0
7.08973e-05	0.00133539	0
5.09225e-05	0.00132155	0
3.10936e-05	0.00131098	0
1.07712e-05	0.00130271	0
-9.60158e-06	0.00129928	0
-2.94852e-05	0.00129709	0
-4.95135e-05	0.00130077	0
-6.93546e-05	0.00130526	0
-8.90651e-05	0.00131413	0
-0.000108362	0.00132648	0
0.000108038	0.0013399	0
8.52743e-05	0.00132206	0
6.23708e-05	0.00130811	0
3.96965e-05	0.00129672	0
1.67578e-05	0.00129003	0
-6.35269e-06	0.00128483	0
-2.99152e-05	0.00128422	0
-5.27883e-05	0.00128627	0
-7.52317e-05	0.00129194	0
-9.83141e-05	0.00130054	0
-0.00012051	0.00131247	0
0.00012568	0.0013211	0
0.000100266	0.00130368	0
7.45632e-05	0.00128972	0
4.82278e-05	0.00127832	0
2.2104e-05	0.00127161	0
-3.55842e-06	0.00126608	0
-2.96175e-05	0.00126626	0
-5.58743e-05	0.00126726	0
-8.19607e-05	0.00127364	0
-0.000107397	0.00128158	0
-0.000132779	0.00129349	0
0.000143669	0.00129789	0
0.000114857	0.00128056	0
8.63489e-05	0.00126647	0
5.73099e-05	0.00125608	0
2.82059e-05	0.00124807	0
-1.1238e-06	0.00124369	0
-3.00835e-05	0.00124285	0
-5.8877e-05	0.00124444	0
-8.76992e-05	0.00125032	0
-0.000116513	0.00125823	0
-0.000144987	0.00126981	0
0.00016146	0.00127039	0
0.000130203	0.00125339	0
9.80805e-05	0.00123911	0
6.63732e-05	0.00122895	0
3.41716e-05	0.00122083	0
1.60874e-06	0.0012172	0
-3.01047e-05	0.00121511	0
-6.2087e-05	0.00121776	0
-9.42297e-05	0.00122259	0
-0.000125777	0.00123071	0
-0.000157163	0.0012418	0
0.000179618	0.00123875	0
0.000145109	0.00122196	0
0.000110573	0.00120813	0
7.55253e-05	0.00119743	0
4.00147e-05	0.00118996	0
4.78964e-06	0.00118597	0
-3.04772e-05	0.00118409	0
-6.55294e-05	0.00118686	0
-0.000100182	0.00119096	0
-0.000135043	0.00119915	0
-0.000169354	0.00121003	0
0.000197704	0.00120362	0
0.000160679	0.00118699	0
0.000122709	0.00117332	0
8.43465e-05	0.0011627	0
4.60496e-05	0.00115547	0
7.71453e-06	0.00115104	0
-3.06104e-05	0.00114991	0
-6.87323e-05	0.00115164	0
-0.000106502	0.00115652	0
-0.000144279	0.00116411	0
-0.000181581	0.00117453	0
0.000217068	0.0011653	0
0.000176259	0.00114917	0
0.000135262	0.00113552	0
9.36646e-05	0.00112513	0
5.22555e-05	0.00111765	0
1.078e-05	0.00111346	0
-3.0969e-05	0.0011121	0
-7.23586e-05	0.00111391	0
-0.000113146	0.00111853	0
-0.00015387	0.00112617	0
-0.000194082	0.00113579	0
-8.55692e-05	0.000520435	-5.82012e-05
-8.16046e-05	0.000529871	-2.76866e-05
-8.24616e-05	0.000528898	-3.19081e-05
-7.8608e-05	0.000526479	-3.48963e-05
-6.98456e-05	0.000523374	-3.71884e-05
-5.89654e-05	0.000521583	-3.79234e-05
-4.84874e-05	0.000520153	-3.76583e-05
-4.03708e-05	0.000518975	-3.62882e-05
-3.77391e-05	0.000517475	-3.34078e-05
-4.13327e-05	0.000514452	-2.76626e-05
-3.14271e-05	0.000495165	-6.34745e-05
-9.57921e-05	0.000544862	-0.000186348
-8.37199e-05	0.000547027	-0.000160182
-8.14692e-05	0.000544478	-0.000160283
-7.61738e-05	0.000540281	-0.000161367
-6.73608e-05	0.000536682	-0.000162212
-5.69879e-05	0.000534539	-0.00016238
-4.66491e-05	0.000533435	-0.000161952
-3.82201e-05	0.000533691	-0.000160803
-3.35611e-05	0.000534537	-0.000159289
-3.10127e-05	0.000532459	-0.000159261
-1.99173e-05	0.000523393	-0.000186775
-9.44317e-05	0.000659425	-0.000162057
-8.81458e-05	0.000660124	-0.000146048
-8.19755e-05	0.000655699	-0.000143232
-7.43948e-05	0.000650204	-0.000143063
-6.49195e-05	0.000645848	-0.000143401
-5.43053e-05	0.000643129	-0.000143426
-4.37625e-05	0.000642199	-0.000143277
-3.41947e-05	0.000642806	-0.000142812
-2.6143e-05	0.000644296	-0.000143008
-1.93353e-05	0.000643945	-0.000146248
-1.13691e-05	0.00063644	-0.000162284
-0.000101863	0.00077415	-0.000140868
-9.14551e-05	0.000772732	-0.000132051
-8.22481e-05	0.00076683	-0.000129024
-7.26389e-05	0.000760632	-0.000128072
-6.22273e-05	0.000755542	-0.000128005
-5.13304e-05	0.000752577	-0.000127849
-4.02973e-05	0.000751345	-0.00012792
-2.95842e-05	0.000752163	-0.000128115
-1.94838e-05	0.000753923	-0.000129187
-9.30872e-06	0.000754571	-0.000132521
2.01816e-06	0.000749594	-0.000142304
-0.000102701	0.000873405	-0.000123037
-9.1461e-05	0.000869164	-0.000117641
-8.06217e-05	0.000862382	-0.000115122
-6.99479e-05	0.000855574	-0.000114237
-5.91827e-05	0.000850273	-0.000113813
-4.81831e-05	0.000847028	-0.000113813
-3.71e-05	0.000845703	-0.000113964
-2.60617e-05	0.000846508	-0.000114407
-1.49088e-05	0.00084835	-0.000115699
-3.39076e-06	0.000849693	-0.000118516
8.48523e-06	0.000848395	-0.000124469
-9.88437e-05	0.000959396	-0.000107967
-8.78794e-05	0.000952405	-0.000104199
-7.69394e-05	0.000944581	-0.000102458
-6.62796e-05	0.000937316	-0.000101454
-5.57192e-05	0.000931905	-0.000101085
-4.51086e-05	0.00092831	-0.00010094
-3.44334e-05	0.000927001	-0.000101079
-2.36166e-05	0.000927801	-0.00010178
-1.25065e-05	0.000929774	-0.000102989
-1.26478e-06	0.000932315	-0.000105258
1.04004e-05	0.000933545	-0.000108925
-9.12554e-05	0.0010342	-9.4041e-05
-8.12413e-05	0.00102462	-9.15005e-05
-7.13049e-05	0.00101582	-9.01271e-05
-6.15262e-05	0.00100821	-8.93465e-05
-5.18302e-05	0.00100258	-8.88843e-05
-4.2101e-05	0.000998711	-8.89964e-05
-3.22663e-05	0.000997562	-8.92362e-05
-2.24257e-05	0.000998193	-8.97183e-05
-1.2276e-05	0.00100074	-9.07506e-05
-1.86489e-06	0.0010042	-9.2428e-05
8.74175e-06	0.00100771	-9.53599e-05
-8.06937e-05	0.00109898	-8.05019e-05
-7.25185e-05	0.00108771	-7.907e-05
-6.41588e-05	0.001078	-7.79986e-05
-5.58249e-05	0.00106992	-7.72251e-05
-4.74448e-05	0.00106405	-7.71317e-05
-3.90909e-05	0.00106012	-7.70755e-05
-3.07204e-05	0.00105906	-7.74354e-05
-2.21518e-05	0.00105972	-7.77384e-05
-1.35932e-05	0.00106274	-7.8742e-05
-4.73587e-06	0.00106697	-8.00103e-05
4.1826e-06	0.00107265	-8.21537e-05
-6.87559e-05	0.00115514	-6.81964e-05
-6.24135e-05	0.00114279	-6.67335e-05
-5.58921e-05	0.00113201	-6.5849e-05
-4.93543e-05	0.00112367	-6.54357e-05
-4.28058e-05	0.00111725	-6.52197e-05
-3.62243e-05	0.00111351	-6.51694e-05
-2.95022e-05	0.00111206	-6.55629e-05
-2.28425e-05	0.00111329	-6.5787e-05
-1.60836e-05	0.00111655	-6.67225e-05
-9.13174e-06	0.00112191	-6.76926e-05
-2.31866e-06	0.00112885	-6.92718e-05
-5.54425e-05	0.00120408	-5.55446e-05
-5.11645e-05	0.00119037	-5.45556e-05
-4.68308e-05	0.0011789	-5.3778e-05
-4.23767e-05	0.00117004	-5.34233e-05
-3.78546e-05	0.00116324	-5.31945e-05
-3.33201e-05	0.00115961	-5.34074e-05
-2.87568e-05	0.00115808	-5.35643e-05
-2.42419e-05	0.0011598	-5.39542e-05
-1.95481e-05	0.00116321	-5.44887e-05
-1.48259e-05	0.00116947	-5.54238e-05
-9.96785e-06	0.00117762	-5.67282e-05
-4.10287e-05	0.00124564	-4.27271e-05
-3.90651e-05	0.00123098	-4.22878e-05
-3.7072e-05	0.00121902	-4.1755e-05
-3.48828e-05	0.00120957	-4.16544e-05
-3.2783e-05	0.00120277	-4.11837e-05
-3.06189e-05	0.00119886	-4.14224e-05
-2.83316e-05	0.00119753	-4.14598e-05
-2.6024e-05	0.00119917	-4.19626e-05
-2.36586e-05	0.00120329	-4.24598e-05
-2.14146e-05	0.0012101	-4.31909e-05
-1.8855e-05	0.00121922	-4.39179e-05
-2.60564e-05	0.00128001	-3.04576e-05
-2.64264e-05	0.00126504	-2.99549e-05
-2.69103e-05	0.00125249	-2.9562e-05
-2.71941e-05	0.0012426	-2.94394e-05
-2.7584e-05	0.00123579	-2.91897e-05
-2.77975e-05	0.0012317	-2.95316e-05
-2.81271e-05	0.00123062	-2.93131e-05
-2.83276e-05	0.00123224	-2.99412e-05
-2.84072e-05	0.0012369	-3.02035e-05
-2.85292e-05	0.00124416	-3.0772e-05
-2.86667e-05	0.00125391	-3.16922e-05
-1.04764e-05	0.0013081	-1.80254e-05
-1.34919e-05	0.0012925	-1.75784e-05
-1.64295e-05	0.00127955	-1.73456e-05
-1.9309e-05	0.00126937	-1.71828e-05
-2.22932e-05	0.00126242	-1.69711e-05
-2.52216e-05	0.00125807	-1.70693e-05
-2.79998e-05	0.00125733	-1.71267e-05
-3.08908e-05	0.00125906	-1.75568e-05
-3.35982e-05	0.00126394	-1.78915e-05
-3.62731e-05	0.00127166	-1.83213e-05
-3.90063e-05	0.00128223	-1.89587e-05
5.7334e-06	0.00132984	-5.28872e-06
-1.18824e-07	0.00131361	-5.12362e-06
-5.70665e-06	0.00130024	-4.89233e-06
-1.12883e-05	0.00129003	-4.81719e-06
-1.69333e-05	0.00128283	-4.75427e-06
-2.25986e-05	0.00127844	-4.82903e-06
-2.8242e-05	0.00127765	-4.83908e-06
-3.36565e-05	0.00127956	-5.20898e-06
-3.90598e-05	0.00128478	-5.21589e-06
-4.44974e-05	0.00129279	-5.80829e-06
-4.96007e-05	0.00130385	-6.2355e-06
2.20473e-05	0.00134505	6.99492e-06
1.36999e-05	0.00132863	7.24527e-06
5.22212e-06	0.00131492	7.52018e-06
-3.19422e-06	0.00130458	7.58452e-06
-1.15943e-05	0.00129707	7.66363e-06
-1.99174e-05	0.00129296	7.66268e-06
-2.82602e-05	0.00129187	7.46402e-06
-3.66316e-05	0.00129405	7.38206e-06
-4.48233e-05	0.0012994	7.06278e-06
-5.29569e-05	0.00130781	6.68537e-06
-6.08856e-05	0.00131873	6.09811e-06
3.85451e-05	0.00135432	1.94064e-05
2.75404e-05	0.00133753	1.97308e-05
1.6359e-05	0.00132374	1.97831e-05
5.07066e-06	0.00131329	1.99008e-05
-6.11744e-06	0.00130557	1.98995e-05
-1.73007e-05	0.00130165	1.97691e-05
-2.84801e-05	0.00130028	1.98465e-05
-3.9605e-05	0.00130275	1.96302e-05
-5.06677e-05	0.00130806	1.94293e-05
-6.15254e-05	0.00131669	1.91462e-05
-7.24022e-05	0.00132802	1.84829e-05
5.54825e-05	0.00135758	3.20167e-05
4.16224e-05	0.00134068	3.19708e-05
2.75585e-05	0.00132661	3.20718e-05
1.34925e-05	0.00131599	3.20626e-05
-6.10196e-07	0.00130843	3.23432e-05
-1.4647e-05	0.00130426	3.19852e-05
-2.86544e-05	0.00130316	3.21625e-05
-4.28156e-05	0.00130559	3.17811e-05
-5.66966e-05	0.00131089	3.17265e-05
-7.04135e-05	0.00131956	3.14903e-05
-8.3923e-05	0.00133141	3.1163e-05
7.25893e-05	0.00135474	4.38817e-05
5.59278e-05	0.00133804	4.42039e-05
3.90224e-05	0.001324	4.42988e-05
2.21305e-05	0.00131308	4.42584e-05
5.02436e-06	0.00130579	4.42489e-05
-1.20307e-05	0.00130115	4.42156e-05
-2.91114e-05	0.00130047	4.43739e-05
-4.59851e-05	0.0013025	4.39906e-05
-6.27216e-05	0.00130805	4.39325e-05
-7.95144e-05	0.00131678	4.35771e-05
-9.58366e-05	0.00132839	4.38347e-05
8.98005e-05	0.00134686	5.59213e-05
7.02278e-05	0.00132983	5.62611e-05
5.06379e-05	0.00131583	5.62837e-05
3.06881e-05	0.00130492	5.62747e-05
1.07279e-05	0.00129744	5.64053e-05
-9.24813e-06	0.00129295	5.64663e-05
-2.9336e-05	0.00129226	5.63791e-05
-4.92083e-05	0.0012942	5.62145e-05
-6.89902e-05	0.00129984	5.60448e-05
-8.84756e-05	0.0013084	5.57939e-05
-0.000107814	0.00132	5.53938e-05
0.000107456	0.00133361	6.8047e-05
8.50384e-05	0.00131641	6.80459e-05
6.23453e-05	0.00130241	6.81215e-05
3.93978e-05	0.00129163	6.82665e-05
1.63664e-05	0.00128384	6.80576e-05
-6.63652e-06	0.00127967	6.83334e-05
-2.94765e-05	0.00127861	6.81466e-05
-5.24071e-05	0.00128091	6.80718e-05
-7.5197e-05	0.00128619	6.78633e-05
-9.77371e-05	0.00129473	6.78278e-05
-0.000120037	0.00130662	6.70761e-05
0.00012506	0.00131512	7.9539e-05
9.97242e-05	0.00129827	7.94978e-05
7.39794e-05	0.00128415	7.9616e-05
4.81664e-05	0.00127354	7.96287e-05
2.22404e-05	0.00126572	7.97176e-05
-3.84415e-06	0.0012616	7.9471e-05
-2.97706e-05	0.00126027	7.94962e-05
-5.56219e-05	0.00126268	7.95335e-05
-8.13735e-05	0.00126779	7.94348e-05
-0.000106898	0.00127634	7.93281e-05
-0.000131976	0.00128798	7.9288e-05
0.000143137	0.00129202	9.0596e-05
0.000114676	0.00127539	9.08614e-05
8.58529e-05	0.0012615	9.08753e-05
5.69665e-05	0.00125063	9.09e-05
2.79856e-05	0.00124313	9.07738e-05
-9.44654e-07	0.00123877	9.07443e-05
-2.99385e-05	0.00123757	9.06269e-05
-5.88829e-05	0.00123978	9.06611e-05
-8.76352e-05	0.0012448	9.06805e-05
-0.000116102	0.0012533	9.06568e-05
-0.000144122	0.00126447	9.04992e-05
0.000160683	0.00126507	0.000101297
0.000129319	0.00124813	0.00010174
9.78988e-05	0.00123449	0.000101704
6.59215e-05	0.00122362	0.000101836
3.39743e-05	0.00121615	0.000101804
1.95657e-06	0.00121158	0.000101701
-3.02143e-05	0.00121067	0.000101489
-6.20562e-05	0.00121249	0.000101642
-9.37739e-05	0.00121761	0.000101626
-0.000125187	0.00122574	0.000101538
-0.000156295	0.00123693	0.000101547
0.000178862	0.00123399	0.000112442
0.000144571	0.00121709	0.00011226
0.000109886	0.00120333	0.000112266
7.498e-05	0.00119273	0.000112468
3.99426e-05	0.00118513	0.000112261
4.73994e-06	0.00118074	0.000112445
-3.0345e-05	0.00117976	0.00011212
-6.52342e-05	0.00118152	0.000112151
-0.00010001	0.0011866	0.000112136
-0.000134497	0.00119438	0.000112228
-0.000168546	0.00120552	0.000112097
0.000196944	0.00119914	0.000122007
0.000159789	0.00118245	0.000122554
0.000122186	0.00116887	0.000122608
8.41087e-05	0.00115827	0.000122576
4.5932e-05	0.00115063	0.000122512
7.64603e-06	0.00114647	0.000122639
-3.05409e-05	0.00114518	0.000122382
-6.84867e-05	0.00114711	0.00012251
-0.00010634	0.00115185	0.000122257
-0.000143742	0.00115979	0.000122246
-0.000180961	0.00117059	0.000122303
0.000215928	0.00116128	0.000132132
0.000175234	0.00114469	0.000132054
0.000134396	0.0011313	0.000132237
9.34819e-05	0.00112078	0.00013236
5.20248e-05	0.00111311	0.000132208
1.05324e-05	0.00110894	0.000132307
-3.08499e-05	0.0011076	0.00013245
-7.19335e-05	0.00110963	0.000131797
-0.000112697	0.00111413	0.000132086
-0.000153187	0.00112193	0.000131829
-0.00019323	0.00113263	0.000131764
-0.000166238	0.000681307	-0.000171721
-0.000130945	0.000666157	-0.000141481
-0.000107769	0.000661509	-0.000137666
-9.08932e-05	0.000656145	-0.000140405
-7.47887e-05	0.000652207	-0.000142485
-5.86574e-05	0.000649679	-0.000143552
-4.28361e-05	0.000648023	-0.000142991
-2.72287e-05	0.000647067	-0.000142303
-1.05289e-05	0.000647042	-0.000140134
1.36183e-05	0.000646104	-0.000145036
4.7533e-05	0.000655686	-0.000177672
-0.000139448	0.000721576	-0.000264399
-0.000120972	0.000712068	-0.00023605
-0.00010222	0.000706801	-0.000228605
-8.65322e-05	0.000701653	-0.000228726
-7.15487e-05	0.000697241	-0.000229673
-5.64152e-05	0.000694479	-0.000230077
-4.10748e-05	0.000693052	-0.000229906
-2.60676e-05	0.000692699	-0.000229137
-1.04063e-05	0.000692761	-0.000229505
8.57317e-06	0.000692728	-0.000237647
2.83825e-05	0.00069598	-0.000267973
-0.000129392	0.000763769	-0.000282482
-0.000111802	0.000756454	-0.00026197
-9.66644e-05	0.000749877	-0.000255174
-8.23429e-05	0.000744219	-0.000253791
-6.80455e-05	0.00073949	-0.000253711
-5.36021e-05	0.000736514	-0.000253884
-3.91325e-05	0.000735206	-0.000253773
-2.47082e-05	0.000735326	-0.000253952
-1.0019e-05	0.000736218	-0.000255809
5.7083e-06	0.000737318	-0.000263261
2.37543e-05	0.000738863	-0.000284559
-0.000119883	0.000831814	-0.000261419
-0.000105378	0.000825172	-0.000247812
-9.16556e-05	0.000817909	-0.000241986
-7.80094e-05	0.000811346	-0.000240141
-6.43956e-05	0.000806282	-0.000239541
-5.07262e-05	0.000803072	-0.000239568
-3.68388e-05	0.000801713	-0.00023977
-2.29784e-05	0.000802194	-0.000240608
-9.0004e-06	0.000803824	-0.000243041
5.56173e-06	0.000805622	-0.000249387
2.08793e-05	0.000806619	-0.000263852
-0.000113067	0.000905914	-0.000235704
-9.95105e-05	0.000898113	-0.000226479
-8.64266e-05	0.000890126	-0.000222053
-7.34921e-05	0.00088298	-0.00022009
-6.0631e-05	0.000877572	-0.000219287
-4.76042e-05	0.000874069	-0.000219127
-3.462e-05	0.000872888	-0.000219494
-2.14873e-05	0.000873477	-0.000220682
-8.05599e-06	0.000875543	-0.000223132
5.55122e-06	0.000878154	-0.000228238
1.99483e-05	0.000879576	-0.000238466
-0.00010556	0.000976937	-0.000209243
-9.28363e-05	0.000967433	-0.000203199
-8.05143e-05	0.000958722	-0.00019973
-6.84381e-05	0.000951204	-0.000198008
-5.64821e-05	0.000945507	-0.000197204
-4.46561e-05	0.000941973	-0.000197155
-3.26849e-05	0.000940734	-0.000197614