# vtk DataFile Version 4.1
vtk output
ASCII
DATASET UNSTRUCTURED_GRID

POINTS	45501	float
0	0	0.0	
0	1	0.0	
0	2	0.0	
0	3	0.0	
0	4	0.0	
0	5	0.0	
0	6	0.0	
0	7	0.0	
0	8	0.0	
0	9	0.0	
0	10	0.0	
0	11	0.0	
0	12	0.0	
0	13	0.0	
0	14	0.0	
0	15	0.0	
0	16	0.0	
0	17	0.0	
0	18	0.0	
0	19	0.0	
0	20	0.0	
0	21	0.0	
0	22	0.0	
0	23	0.0	
0	24	0.0	
0	25	0.0	
0	26	0.0	
0	27	0.0	
0	28	0.0	
0	29	0.0	
0	30	0.0	
0	31	0.0	
0	32	0.0	
0	33	0.0	
0	34	0.0	
0	35	0.0	
0	36	0.0	
0	37	0.0	
0	38	0.0	
0	39	0.0	
0	40	0.0	
0	41	0.0	
0	42	0.0	
0	43	0.0	
0	44	0.0	
0	45	0.0	
0	46	0.0	
0	47	0.0	
0	48	0.0	
0	49	0.0	
0	50	0.0	
0	51	0.0	
0	52	0.0	
0	53	0.0	
0	54	0.0	
0	55	0.0	
0	56	0.0	
0	57	0.0	
0	58	0.0	
0	59	0.0	
0	60	0.0	
0	61	0.0	
0	62	0.0	
0	63	0.0	
0	64	0.0	
0	65	0.0	
0	66	0.0	
0	67	0.0	
0	68	0.0	
0	69	0.0	
0	70	0.0	
0	71	0.0	
0	72	0.0	
0	73	0.0	
0	74	0.0	
0	75	0.0	
0	76	0.0	
0	77	0.0	
0	78	0.0	
0	79	0.0	
0	80	0.0	
0	81	0.0	
0	82	0.0	
0	83	0.0	
0	84	0.0	
0	85	0.0	
0	86	0.0	
0	87	0.0	
0	88	0.0	
0	89	0.0	
0	90	0.0	
0	91	0.0	
0	92	0.0	
0	93	0.0	
0	94	0.0	
0	95	0.0	
0	96	0.0	
0	97	0.0	
0	98	0.0	
0	99	0.0	
0	100	0.0	
1	0	0.0	
1	1	0.0	
1	2	0.0	
1	3	0.0	
1	4	0.0	
1	5	0.0	
1	6	0.0	
1	7	0.0	
1	8	0.0	
1	9	0.0	
1	10	0.0	
1	11	0.0	
1	12	0.0	
1	13	0.0	
1	14	0.0	
1	15	0.0	
1	16	0.0	
1	17	0.0	
1	18	0.0	
1	19	0.0	
1	20	0.0	
1	21	0.0	
1	22	0.0	
1	23	0.0	
1	24	0.0	
1	25	0.0	
1	26	0.0	
1	27	0.0	
1	28	0.0	
1	29	0.0	
1	30	0.0	
1	31	0.0	
1	32	0.0	
1	33	0.0	
1	34	0.0	
1	35	0.0	
1	36	0.0	
1	37	0.0	
1	38	0.0	
1	39	0.0	
1	40	0.0	
1	41	0.0	
1	42	0.0	
1	43	0.0	
1	44	0.0	
1	45	0.0	
1	46	0.0	
1	47	0.0	
1	48	0.0	
1	49	0.0	
1	50	0.0	
1	51	0.0	
1	52	0.0	
1	53	0.0	
1	54	0.0	
1	55	0.0	
1	56	0.0	
1	57	0.0	
1	58	0.0	
1	59	0.0	
1	60	0.0	
1	61	0.0	
1	62	0.0	
1	63	0.0	
1	64	0.0	
1	65	0.0	
1	66	0.0	
1	67	0.0	
1	68	0.0	
1	69	0.0	
1	70	0.0	
1	71	0.0	
1	72	0.0	
1	73	0.0	
1	74	0.0	
1	75	0.0	
1	76	0.0	
1	77	0.0	
1	78	0.0	
1	79	0.0	
1	80	0.0	
1	81	0.0	
1	82	0.0	
1	83	0.0	
1	84	0.0	
1	85	0.0	
1	86	0.0	
1	87	0.0	
1	88	0.0	
1	89	0.0	
1	90	0.0	
1	91	0.0	
1	92	0.0	
1	93	0.0	
1	94	0.0	
1	95	0.0	
1	96	0.0	
1	97	0.0	
1	98	0.0	
1	99	0.0	
1	100	0.0	
2	0	0.0	
2	1	0.0	
2	2	0.0	
2	3	0.0	
2	4	0.0	
2	5	0.0	
2	6	0.0	
2	7	0.0	
2	8	0.0	
2	9	0.0	
2	10	0.0	
2	11	0.0	
2	12	0.0	
2	13	0.0	
2	14	0.0	
2	15	0.0	
2	16	0.0	
2	17	0.0	
2	18	0.0	
2	19	0.0	
2	20	0.0	
2	21	0.0	
2	22	0.0	
2	23	0.0	
2	24	0.0	
2	25	0.0	
2	26	0.0	
2	27	0.0	
2	28	0.0	
2	29	0.0	
2	30	0.0	
2	31	0.0	
2	32	0.0	
2	33	0.0	
2	34	0.0	
2	35	0.0	
2	36	0.0	
2	37	0.0	
2	38	0.0	
2	39	0.0	
2	40	0.0	
2	41	0.0	
2	42	0.0	
2	43	0.0	
2	44	0.0	
2	45	0.0	
2	46	0.0	
2	47	0.0	
2	48	0.0	
2	49	0.0	
2	50	0.0	
2	51	0.0	
2	52	0.0	
2	53	0.0	
2	54	0.0	
2	55	0.0	
2	56	0.0	
2	57	0.0	
2	58	0.0	
2	59	0.0	
2	60	0.0	
2	61	0.0	
2	62	0.0	
2	63	0.0	
2	64	0.0	
2	65	0.0	
2	66	0.0	
2	67	0.0	
2	68	0.0	
2	69	0.0	
2	70	0.0	
2	71	0.0	
2	72	0.0	
2	73	0.0	
2	74	0.0	
2	75	0.0	
2	76	0.0	
2	77	0.0	
2	78	0.0	
2	79	0.0	
2	80	0.0	
2	81	0.0	
2	82	0.0	
2	83	0.0	
2	84	0.0	
2	85	0.0	
2	86	0.0	
2	87	0.0	
2	88	0.0	
2	89	0.0	
2	90	0.0	
2	91	0.0	
2	92	0.0	
2	93	0.0	
2	94	0.0	
2	95	0.0	
2	96	0.0	
2	97	0.0	
2	98	0.0	
2	99	0.0	
2	100	0.0	
3	0	0.0	
3	1	0.0	
3	2	0.0	
3	3	0.0	
3	4	0.0	
3	5	0.0	
3	6	0.0	
3	7	0.0	
3	8	0.0	
3	9	0.0	
3	10	0.0	
3	11	0.0	
3	12	0.0	
3	13	0.0	
3	14	0.0	
3	15	0.0	
3	16	0.0	
3	17	0.0	
3	18	0.0	
3	19	0.0	
3	20	0.0	
3	21	0.0	
3	22	0.0	
3	23	0.0	
3	24	0.0	
3	25	0.0	
3	26	0.0	
3	27	0.0	
3	28	0.0	
3	29	0.0	
3	30	0.0	
3	31	0.0	
3	32	0.0	
3	33	0.0	
3	34	0.0	
3	35	0.0	
3	36	0.0	
3	37	0.0	
3	38	0.0	
3	39	0.0	
3	40	0.0	
3	41	0.0	
3	42	0.0	
3	43	0.0	
3	44	0.0	
3	45	0.0	
3	46	0.0	
3	47	0.0	
3	48	0.0	
3	49	0.0	
3	50	0.0	
3	51	0.0	
3	52	0.0	
3	53	0.0	
3	54	0.0	
3	55	0.0	
3	56	0.0	
3	57	0.0	
3	58	0.0	
3	59	0.0	
3	60	0.0	
3	61	0.0	
3	62	0.0	
3	63	0.0	
3	64	0.0	
3	65	0.0	
3	66	0.0	
3	67	0.0	
3	68	0.0	
3	69	0.0	
3	70	0.0	
3	71	0.0	
3	72	0.0	
3	73	0.0	
3	74	0.0	
3	75	0.0	
3	76	0.0	
3	77	0.0	
3	78	0.0	
3	79	0.0	
3	80	0.0	
3	81	0.0	
3	82	0.0	
3	83	0.0	
3	84	0.0	
3	85	0.0	
3	86	0.0	
3	87	0.0	
3	88	0.0	
3	89	0.0	
3	90	0.0	
3	91	0.0	
3	92	0.0	
3	93	0.0	
3	94	0.0	
3	95	0.0	
3	96	0.0	
3	97	0.0	
3	98	0.0	
3	99	0.0	
3	100	0.0	
4	0	0.0	
4	1	0.0	
4	2	0.0	
4	3	0.0	
4	4	0.0	
4	5	0.0	
4	6	0.0	
4	7	0.0	
4	8	0.0	
4	9	0.0	
4	10	0.0	
4	11	0.0	
4	12	0.0	
4	13	0.0	
4	14	0.0	
4	15	0.0	
4	16	0.0	
4	17	0.0	
4	18	0.0	
4	19	0.0	
4	20	0.0	
4	21	0.0	
4	22	0.0	
4	23	0.0	
4	24	0.0	
4	25	0.0	
4	26	0.0	
4	27	0.0	
4	28	0.0	
4	29	0.0	
4	30	0.0	
4	31	0.0	
4	32	0.0	
4	33	0.0	
4	34	0.0	
4	35	0.0	
4	36	0.0	
4	37	0.0	
4	38	0.0	
4	39	0.0	
4	40	0.0	
4	41	0.0	
4	42	0.0	
4	43	0.0	
4	44	0.0	
4	45	0.0	
4	46	0.0	
4	47	0.0	
4	48	0.0	
4	49	0.0	
4	50	0.0	
4	51	0.0	
4	52	0.0	
4	53	0.0	
4	54	0.0	
4	55	0.0	
4	56	0.0	
4	57	0.0	
4	58	0.0	
4	59	0.0	
4	60	0.0	
4	61	0.0	
4	62	0.0	
4	63	0.0	
4	64	0.0	
4	65	0.0	
4	66	0.0	
4	67	0.0	
4	68	0.0	
4	69	0.0	
4	70	0.0	
4	71	0.0	
4	72	0.0	
4	73	0.0	
4	74	0.0	
4	75	0.0	
4	76	0.0	
4	77	0.0	
4	78	0.0	
4	79	0.0	
4	80	0.0	
4	81	0.0	
4	82	0.0	
4	83	0.0	
4	84	0.0	
4	85	0.0	
4	86	0.0	
4	87	0.0	
4	88	0.0	
4	89	0.0	
4	90	0.0	
4	91	0.0	
4	92	0.0	
4	93	0.0	
4	94	0.0	
4	95	0.0	
4	96	0.0	
4	97	0.0	
4	98	0.0	
4	99	0.0	
4	100	0.0	
5	0	0.0	
5	1	0.0	
5	2	0.0	
5	3	0.0	
5	4	0.0	
5	5	0.0	
5	6	0.0	
5	7	0.0	
5	8	0.0	
5	9	0.0	
5	10	0.0	
5	11	0.0	
5	12	0.0	
5	13	0.0	
5	14	0.0	
5	15	0.0	
5	16	0.0	
5	17	0.0	
5	18	0.0	
5	19	0.0	
5	20	0.0	
5	21	0.0	
5	22	0.0	
5	23	0.0	
5	24	0.0	
5	25	0.0	
5	26	0.0	
5	27	0.0	
5	28	0.0	
5	29	0.0	
5	30	0.0	
5	31	0.0	
5	32	0.0	
5	33	0.0	
5	34	0.0	
5	35	0.0	
5	36	0.0	
5	37	0.0	
5	38	0.0	
5	39	0.0	
5	40	0.0	
5	41	0.0	
5	42	0.0	
5	43	0.0	
5	44	0.0	
5	45	0.0	
5	46	0.0	
5	47	0.0	
5	48	0.0	
5	49	0.0	
5	50	0.0	
5	51	0.0	
5	52	0.0	
5	53	0.0	
5	54	0.0	
5	55	0.0	
5	56	0.0	
5	57	0.0	
5	58	0.0	
5	59	0.0	
5	60	0.0	
5	61	0.0	
5	62	0.0	
5	63	0.0	
5	64	0.0	
5	65	0.0	
5	66	0.0	
5	67	0.0	
5	68	0.0	
5	69	0.0	
5	70	0.0	
5	71	0.0	
5	72	0.0	
5	73	0.0	
5	74	0.0	
5	75	0.0	
5	76	0.0	
5	77	0.0	
5	78	0.0	
5	79	0.0	
5	80	0.0	
5	81	0.0	
5	82	0.0	
5	83	0.0	
5	84	0.0	
5	85	0.0	
5	86	0.0	
5	87	0.0	
5	88	0.0	
5	89	0.0	
5	90	0.0	
5	91	0.0	
5	92	0.0	
5	93	0.0	
5	94	0.0	
5	95	0.0	
5	96	0.0	
5	97	0.0	
5	98	0.0	
5	99	0.0	
5	100	0.0	
6	0	0.0	
6	1	0.0	
6	2	0.0	
6	3	0.0	
6	4	0.0	
6	5	0.0	
6	6	0.0	
6	7	0.0	
6	8	0.0	
6	9	0.0	
6	10	0.0	
6	11	0.0	
6	12	0.0	
6	13	0.0	
6	14	0.0	
6	15	0.0	
6	16	0.0	
6	17	0.0	
6	18	0.0	
6	19	0.0	
6	20	0.0	
6	21	0.0	
6	22	0.0	
6	23	0.0	
6	24	0.0	
6	25	0.0	
6	26	0.0	
6	27	0.0	
6	28	0.0	
6	29	0.0	
6	30	0.0	
6	31	0.0	
6	32	0.0	
6	33	0.0	
6	34	0.0	
6	35	0.0	
6	36	0.0	
6	37	0.0	
6	38	0.0	
6	39	0.0	
6	40	0.0	
6	41	0.0	
6	42	0.0	
6	43	0.0	
6	44	0.0	
6	45	0.0	
6	46	0.0	
6	47	0.0	
6	48	0.0	
6	49	0.0	
6	50	0.0	
6	51	0.0	
6	52	0.0	
6	53	0.0	
6	54	0.0	
6	55	0.0	
6	56	0.0	
6	57	0.0	
6	58	0.0	
6	59	0.0	
6	60	0.0	
6	61	0.0	
6	62	0.0	
6	63	0.0	
6	64	0.0	
6	65	0.0	
6	66	0.0	
6	67	0.0	
6	68	0.0	
6	69	0.0	
6	70	0.0	
6	71	0.0	
6	72	0.0	
6	73	0.0	
6	74	0.0	
6	75	0.0	
6	76	0.0	
6	77	0.0	
6	78	0.0	
6	79	0.0	
6	80	0.0	
6	81	0.0	
6	82	0.0	
6	83	0.0	
6	84	0.0	
6	85	0.0	
6	86	0.0	
6	87	0.0	
6	88	0.0	
6	89	0.0	
6	90	0.0	
6	91	0.0	
6	92	0.0	
6	93	0.0	
6	94	0.0	
6	95	0.0	
6	96	0.0	
6	97	0.0	
6	98	0.0	
6	99	0.0	
6	100	0.0	
7	0	0.0	
7	1	0.0	
7	2	0.0	
7	3	0.0	
7	4	0.0	
7	5	0.0	
7	6	0.0	
7	7	0.0	
7	8	0.0	
7	9	0.0	
7	10	0.0	
7	11	0.0	
7	12	0.0	
7	13	0.0	
7	14	0.0	
7	15	0.0	
7	16	0.0	
7	17	0.0	
7	18	0.0	
7	19	0.0	
7	20	0.0	
7	21	0.0	
7	22	0.0	
7	23	0.0	
7	24	0.0	
7	25	0.0	
7	26	0.0	
7	27	0.0	
7	28	0.0	
7	29	0.0	
7	30	0.0	
7	31	0.0	
7	32	0.0	
7	33	0.0	
7	34	0.0	
7	35	0.0	
7	36	0.0	
7	37	0.0	
7	38	0.0	
7	39	0.0	
7	40	0.0	
7	41	0.0	
7	42	0.0	
7	43	0.0	
7	44	0.0	
7	45	0.0	
7	46	0.0	
7	47	0.0	
7	48	0.0	
7	49	0.0	
7	50	0.0	
7	51	0.0	
7	52	0.0	
7	53	0.0	
7	54	0.0	
7	55	0.0	
7	56	0.0	
7	57	0.0	
7	58	0.0	
7	59	0.0	
7	60	0.0	
7	61	0.0	
7	62	0.0	
7	63	0.0	
7	64	0.0	
7	65	0.0	
7	66	0.0	
7	67	0.0	
7	68	0.0	
7	69	0.0	
7	70	0.0	
7	71	0.0	
7	72	0.0	
7	73	0.0	
7	74	0.0	
7	75	0.0	
7	76	0.0	
7	77	0.0	
7	78	0.0	
7	79	0.0	
7	80	0.0	
7	81	0.0	
7	82	0.0	
7	83	0.0	
7	84	0.0	
7	85	0.0	
7	86	0.0	
7	87	0.0	
7	88	0.0	
7	89	0.0	
7	90	0.0	
7	91	0.0	
7	92	0.0	
7	93	0.0	
7	94	0.0	
7	95	0.0	
7	96	0.0	
7	97	0.0	
7	98	0.0	
7	99	0.0	
7	100	0.0	
8	0	0.0	
8	1	0.0	
8	2	0.0	
8	3	0.0	
8	4	0.0	
8	5	0.0	
8	6	0.0	
8	7	0.0	
8	8	0.0	
8	9	0.0	
8	10	0.0	
8	11	0.0	
8	12	0.0	
8	13	0.0	
8	14	0.0	
8	15	0.0	
8	16	0.0	
8	17	0.0	
8	18	0.0	
8	19	0.0	
8	20	0.0	
8	21	0.0	
8	22	0.0	
8	23	0.0	
8	24	0.0	
8	25	0.0	
8	26	0.0	
8	27	0.0	
8	28	0.0	
8	29	0.0	
8	30	0.0	
8	31	0.0	
8	32	0.0	
8	33	0.0	
8	34	0.0	
8	35	0.0	
8	36	0.0	
8	37	0.0	
8	38	0.0	
8	39	0.0	
8	40	0.0	
8	41	0.0	
8	42	0.0	
8	43	0.0	
8	44	0.0	
8	45	0.0	
8	46	0.0	
8	47	0.0	
8	48	0.0	
8	49	0.0	
8	50	0.0	
8	51	0.0	
8	52	0.0	
8	53	0.0	
8	54	0.0	
8	55	0.0	
8	56	0.0	
8	57	0.0	
8	58	0.0	
8	59	0.0	
8	60	0.0	
8	61	0.0	
8	62	0.0	
8	63	0.0	
8	64	0.0	
8	65	0.0	
8	66	0.0	
8	67	0.0	
8	68	0.0	
8	69	0.0	
8	70	0.0	
8	71	0.0	
8	72	0.0	
8	73	0.0	
8	74	0.0	
8	75	0.0	
8	76	0.0	
8	77	0.0	
8	78	0.0	
8	79	0.0	
8	80	0.0	
8	81	0.0	
8	82	0.0	
8	83	0.0	
8	84	0.0	
8	85	0.0	
8	86	0.0	
8	87	0.0	
8	88	0.0	
8	89	0.0	
8	90	0.0	
8	91	0.0	
8	92	0.0	
8	93	0.0	
8	94	0.0	
8	95	0.0	
8	96	0.0	
8	97	0.0	
8	98	0.0	
8	99	0.0	
8	100	0.0	
9	0	0.0	
9	1	0.0	
9	2	0.0	
9	3	0.0	
9	4	0.0	
9	5	0.0	
9	6	0.0	
9	7	0.0	
9	8	0.0	
9	9	0.0	
9	10	0.0	
9	11	0.0	
9	12	0.0	
9	13	0.0	
9	14	0.0	
9	15	0.0	
9	16	0.0	
9	17	0.0	
9	18	0.0	
9	19	0.0	
9	20	0.0	
9	21	0.0	
9	22	0.0	
9	23	0.0	
9	24	0.0	
9	25	0.0	
9	26	0.0	
9	27	0.0	
9	28	0.0	
9	29	0.0	
9	30	0.0	
9	31	0.0	
9	32	0.0	
9	33	0.0	
9	34	0.0	
9	35	0.0	
9	36	0.0	
9	37	0.0	
9	38	0.0	
9	39	0.0	
9	40	0.0	
9	41	0.0	
9	42	0.0	
9	43	0.0	
9	44	0.0	
9	45	0.0	
9	46	0.0	
9	47	0.0	
9	48	0.0	
9	49	0.0	
9	50	0.0	
9	51	0.0	
9	52	0.0	
9	53	0.0	
9	54	0.0	
9	55	0.0	
9	56	0.0	
9	57	0.0	
9	58	0.0	
9	59	0.0	
9	60	0.0	
9	61	0.0	
9	62	0.0	
9	63	0.0	
9	64	0.0	
9	65	0.0	
9	66	0.0	
9	67	0.0	
9	68	0.0	
9	69	0.0	
9	70	0.0	
9	71	0.0	
9	72	0.0	
9	73	0.0	
9	74	0.0	
9	75	0.0	
9	76	0.0	
9	77	0.0	
9	78	0.0	
9	79	0.0	
9	80	0.0	
9	81	0.0	
9	82	0.0	
9	83	0.0	
9	84	0.0	
9	85	0.0	
9	86	0.0	
9	87	0.0	
9	88	0.0	
9	89	0.0	
9	90	0.0	
[...]
CELL_DATA	15000
SCALARS Rho0 float
LOOKUP_TABLE default
1
1
1
1
1
1
1
1
1
1
1
1
1
1
1
1
1
1
1
1
1
0.0653739
0.0500327
0.075825
0.10318
0.102302
0.104028
0.105924
0.107107
0.108202
0.10931
0.114135
0.118101
0.121166
0.123841
0.125579
0.126168
0.125772
0.124476
0.122266
0.119154
0.115186
0.110327
0.104249
0.0969537
0.0892617
0.082891
0.079404
0.0757789
0.0719975
0.0675096
0.0623544
0.0565186
0.0496643
0.0406591
0.0114493
0.00967739
0.00916357
0.00870066
0.00827378
0.00783511
0.00734252
0.00675933
0.00630938
0.00595315
0.00565572
0.00565572
0.00565572
0.00565572
0.00565572
0.00565572
0.00565572
0.00565572
0.00565572
0.00565572
0.00565572
0.00565572
0.00565572
0.00565572
0.00565572
0.00565572
0.00565572
0.00565572
0.00565572
0.00565572
0.00565572
0.00565572
0.00565572
0.00565572
0.00565572
0.00565572
0.00565572
0.00565572
0.00565572
0.00565572
0.00565572
0.00565572
0.00565572
0.00565572
0.00565572
1
1
1
1
1
1
1
1
1
1
1
1
1
1
1
1
1
1
1
1
1
1
1
1
0.0472938
0.0383093
0.0459855
0.0423152
0.0291167
0.0202773
0.0182804
0.0169583
0.0151882
0.0138511
0.0134899
0.0135292
0.0129624
0.0121018
0.0114007
0.0109658
0.010541
0.0103262
0.00995451
0.00976709
0.00962149
0.00949009
0.00933384
0.00907418
0.00887272
0.00862815
0.00836099
0.00811778
0.00797124
0.00787068
0.00771413
0.00743562
0.00732881
0.00721367
0.00705804
0.00682176
0.00656483
0.00638931
0.00625197
0.00612204
0.00575366
0.00565572
0.00565572
0.00565572
0.00565572
0.00565572
0.00565572
0.00565572
0.00565572
0.00565572
0.00565572
0.00565572
0.00565572
0.00565572
0.00565572
0.00565572
0.00565572
0.00565572
0.00565572
0.00565572
0.00565572
0.00565572
0.00565572
0.00565572
0.00565572
0.00565572
0.00565572
0.00565572
0.00565572
0.00565572
0.00565572
0.00565572
0.00565572
0.00565572
0.00565572
0.00565572
1
1
1
1
1
1
1
1
1
1
1
1
1
1
1
1
1
1
1
1
1
1
1
1
1
1
1
0.0188841
0.018423
0.01876
0.0169787
0.01525
0.0130958
0.0133542
0.013956
0.0131559
0.0119531
0.0111309
0.0106103
0.0103262
0.0103262
0.00994331
0.00952447
0.00912284
0.00895135
0.00877182
0.00854922
0.00827886
0.00806028
0.00790461
0.00765192
0.00742629
0.00732852
0.00721342
0.00712292
0.00698689
0.00669044
0.00665029
0.00646042
0.00635862
0.0063319
0.0061977
0.005952
0.00585578
0.00565572
0.00565572
0.00565572
0.00565572
0.00565572
0.00565572
0.00565572
0.00565572
0.00565572
0.00565572
0.00565572
0.00565572
0.00565572
0.00565572
0.00565572
0.00565572
0.00565572
0.00565572
0.00565572
0.00565572
0.00565572
0.00565572
0.00565572
0.00565572
0.00565572
0.00565572
0.00565572
0.00565572
0.00565572
0.00565572
0.00565572
0.00565572
0.00565572
0.00565572
0.00565572
0.00565572
1
1
1
1
1
1
1
1
1
1
1
1
1
1
1
1
1
1
1
1
1
1
1
1
1
1
1
1
1
0.0444635
0.0135462
0.0127386
0.014711
0.0139523
0.0137185
0.0121017
0.0111082
0.0105255
0.0103262
0.0103262
0.0100211
0.00957555
0.0091531
0.00875739
0.00857787
0.00835994
0.00813763
0.0079195
0.00783783
0.0075214
0.00734382
0.00714017
0.00699131
0.00691255
0.00674371
0.00663405
0.00644886
0.00646098
0.00634721
0.00612542
0.00611651
0.00601195
0.00577157
0.00565572
0.00565572
0.00565572
0.00565572
0.00565572
0.00565572
0.00565572
0.00565572
0.00565572
0.00565572
0.00565572
0.00565572
0.00565572
0.00565572
0.00565572
0.00565572
0.00565572
0.00565572
0.00565572
0.00565572
0.00565572
0.00565572
0.00565572
0.00565572
0.00565572
0.00565572
0.00565572
0.00565572
0.00565572
0.00565572
0.00565572
0.00565572
0.00565572
0.00565572
0.00565572
0.00565572
0.00565572
1
1
0.00932573
1
1
1
1
1
1
1
1
1
1
1
1
1
1
1
1
1
1
1
1
1
1
1
1
1
1
1
1
1
0.0254429
0.0125457
0.0119196
0.0128936
0.0114035
0.0103262
0.0103262
0.010173
0.00971737
0.0092837
0.00887291
0.00862152
0.00839846
0.00818012
0.00796156
0.00783926
0.00775729
0.00745595
0.00721565
0.00703164
0.00691255
0.00691255
0.00672589
0.00642898
0.00632599
0.0062916
0.00624873
0.00603164
0.00593949
0.00585368
0.00565656
0.00565572
0.00565572
0.00565572
0.00565572
0.00565572
0.00565572
0.00565572
0.00565572
0.00565572
0.00565572
0.00565572
0.00565572
0.00565572
0.00565572
0.00565572
0.00565572
0.00565572
0.00565572
0.00565572
0.00565572
0.00565572
0.00565572
0.00565572
0.00565572
0.00565572
0.00565572
0.00565572
0.00565572
0.00565572
0.00565572
0.00565572
0.00565572
0.00565572
0.00565572
0.00565572
0.00565572
0.00565572
1
1
1
0.15017
1
1
1
1
1
1
1
1
1
1
1
1
1
1
1
1
1
1
1
1
1
1
1
1
1
1
1
1
1
1
0.8758
0.0135209
0.0106872
0.010919
0.0106772
0.00992288
0.00949275
0.00908606
0.00887188
0.00864422
0.00834487
0.00812364
0.00790562
0.00778572
0.00768796
0.00740215
0.00713074
0.00696352
0.00691255
0.00691255
0.00672099
0.00644767
0.00621742
0.00615305
0.00614782
0.00597793
0.00579315
0.00572659
0.00565572
0.00565572
0.00565572
0.00565572
0.00565572
0.00565572
0.00565572
0.00565572
0.00565572
0.00565572
0.00565572
0.00565572
0.00565572
0.00565572
0.00565572
0.00565572
0.00565572
0.00565572
0.00565572
0.00565572
0.00565572
0.00565572
0.00565572
0.00565572
0.00565572
0.00565572
0.00565572
0.00565572
0.00565572
0.00565572
0.00565572
0.00565572
0.00565572
0.00565572
0.00565572
0.00565572
0.00565572
0.00565572
1
1
1
0.475952
0.231344
1
1
1
1
1
1
1
1
1
1
1
1
1
1
1
1
1
1
1
1
1
1
1
1
1
1
1
1
1
1
1
1
0.0132797
0.0103213
0.010029
0.00955043
0.00929183
0.00906664
0.0088042
0.00851631
0.00824156
0.00798739
0.00775673
0.00762833
0.00735834
0.00714889
0.00699136
0.00691255
0.00691255
0.00672899
0.00647549
0.00622079
0.00606637
0.00607288
0.00595468
0.00576223
0.00565572
0.00565572
0.00565572
0.00565572
0.00565572
0.00565572
0.00565572
0.00565572
0.00565572
0.00565572
0.00565572
0.00565572
0.00565572
0.00565572
0.00565572
0.00565572
0.00565572
0.00565572
0.00565572
0.00565572
0.00565572
0.00565572
0.00565572
0.00565572
0.00565572
0.00565572
0.00565572
0.00565572
0.00565572
0.00565572
0.00565572
0.00565572
0.00565572
0.00565572
0.00565572
0.00565572
0.00565572
0.00565572
0.00565572
1
1
1
1
0.219301
0.342797
1
1
1
1
1
1
1
1
1
1
1
1
1
1
1
1
1
1
1
1
1
1
1
1
1
1
1
1
1
1
1
1
1
0.0134629
0.0101676
0.00969854
0.0093474
0.00905379
0.00874755
0.00845789
0.00820041
0.00792408
0.00764126
0.00740048
0.00722823
0.00707127
0.00691255
0.00691255
0.00674853
0.00651203
0.0062738
0.0060358
0.00599881
0.00594567
0.00577712
0.00565572
0.00565572
0.00565572
0.00565572
0.00565572
0.00565572
0.00565572
0.00565572
0.00565572
0.00565572
0.00565572
0.00565572
0.00565572
0.00565572
0.00565572
0.00565572
0.00565572
0.00565572
0.00565572
0.00565572
0.00565572
0.00565572
0.00565572
0.00565572
0.00565572
0.00565572
0.00565572
0.00565572
0.00565572
0.00565572
0.00565572
0.00565572
0.00565572
0.00565572
0.00565572
0.00565572
0.00565572
0.00565572
0.00565572
1
1
1
1
0.433609
0.406717
0.976516
1
1
1
1
1
1
1
1
1
1
1
1
1
1
1
1
1
1
1
1
1
1
1
1
1
1
1
1
1
1
1
1
1
1
0.0126777
0.00994081
0.00951956
0.0090851
0.00877968
0.00851324
0.0082204
0.00790034
0.00760971
0.00733927
0.00718736
0.00691255
0.00691255
0.00677811
0.00655628
0.0063325
0.00610823
0.00595955
0.00591962
0.00579555
0.00565572
0.00565572
0.00565572
0.00565572
0.00565572
0.00565572
0.00565572
0.00565572
0.00565572
0.00565572
0.00565572
0.00565572
0.00565572
0.00565572
0.00565572
0.00565572
0.00565572
0.00565572
0.00565572
0.00565572
0.00565572
0.00565572
0.00565572
0.00565572
0.00565572
0.00565572
0.00565572
0.00565572
0.00565572
0.00565572
0.00565572
0.00565572
0.00565572
0.00565572
0.00565572
0.00565572
0.00565572
0.00565572
0.00565572
1
1
1
1
1
1
1
1
1
0.0179705
0.0895096
0.885355
1
1
1
1
1
1
1
1
1
1
1
1
1
1
1
1
1
1
1
1
1
1
1
1
1
1
1
1
1
1
0.783586
0.0122526
0.0102174
0.0093077
0.00886102
0.0085713
0.00822957
0.00788839
0.00754489
0.0073259
0.00706403
0.00691255
0.00681622
0.00660704
0.0063959
0.00618386
0.00597203
0.00592154
0.00582899
0.00567839
0.00565572
0.00565572
0.00565572
0.00565572
0.00565572
0.00565572
0.00565572
0.00565572
0.00565572
0.00565572
0.00565572
0.00565572
0.00565572
0.00565572
0.00565572
0.00565572
0.00565572
0.00565572
0.00565572
0.00565572
0.00565572
0.00565572
0.00565572
0.00565572
0.00565572
0.00565572
0.00565572
0.00565572
0.00565572
0.00565572
0.00565572
0.00565572
0.00565572
0.00565572
0.00565572
0.00565572
0.00565572
0.00565572
1
1
1
1
1
1
1
0.361474
0.0111509
0.00658099
0.00684047
0.00649137
0.0059462
0.00675752
0.00889321
1
1
1
1
1
1
1
1
1
1
1
1
1
1
1
1
1
1
1
1
1
1
1
1
1
1
1
1
1
0.0143258
0.00997567
0.00950367
0.00902002
0.00857345
0.00822863
0.0078616
0.00752093
0.00729603
0.00702843
0.00686125
0.00666303
0.00646294
0.00626172
0.00606024
0.00594408
0.00585291
0.00573394
0.00565572
0.00565572
0.00565572
0.00565572
0.00565572
0.00565572
0.00565572
0.00565572
0.00565572
0.00565572
0.00565572
0.00565572
0.00565572
0.00565572
0.00565572
0.00565572
0.00565572
0.00565572
0.00565572
0.00565572
0.00565572
0.00565572
0.00565572
0.00565572
0.00565572
0.00565572
0.00565572
0.00565572
0.00565572
0.00565572
0.00565572
0.00565572
0.00565572
0.00565572
0.00565572
0.00565572
0.00565572
0.00565572
1
1
1
1
1
0.166587
0.114513
0.0114505
0.00667638
0.00610403
0.00610337
0.00583951
0.00591358
0.00584616
0.00565572
0.00606729
0.00616352
1
1
1
1
1
1
1
1
1
1
1
1
1
1
1
1
1
1
1
1
1
1
1
1
1
1
1
1
0.823839
0.0109443
0.00971186
0.00925187
0.00878865
0.00833169
0.00785346
0.00759487
0.00731599
0.00699292
0.00675441
0.00654147
0.00634085
0.00614866
0.00601181
0.00591288
0.00579052
0.00565998
0.00565572
0.00565572
0.00565572
0.00565572
0.00565572
0.00565572
0.00565572
0.00565572
0.00565572
0.00565572
0.00565572
0.00565572
0.00565572
0.00565572
0.00565572
0.00565572
0.00565572
0.00565572
0.00565572
0.00565572
0.00565572
0.00565572
0.00565572
0.00565572
0.00565572
0.00565572
0.00565572
0.00565572
0.00565572
0.00565572
0.00565572
0.00565572
0.00565572
0.00565572
0.00565572
0.00565572
0.00565572
1
1
1
1
1
0.145309
0.0146672
0.00678952
0.00597066
0.00579804
0.00570846
0.00565572
0.00565572
0.00565572
0.00565572
0.00565572
0.00578335
0.00605374
0.00634415
0.48231
1
1
1
1
1
1
1
1
1
1
1
1
1
1
1
1
1
1
1
1
1
1
1
1
1
1
1
0.0141112
0.010499
0.00948649
0.00904011
0.0085721
0.00798581
0.00766613
0.00731347
0.00703064
0.00677265
0.00652973
0.00629208
0.00611848
0.00599126
0.00585706
0.00573982
0.00565572
0.00565572
0.00565572
0.00565572
0.00565572
0.00565572
0.00565572
0.00565572
0.00565572
0.00565572
0.00565572
0.00565572
0.00565572
0.00565572
0.00565572
0.00565572
0.00565572
0.00565572
0.00565572
0.00565572
0.00565572
0.00565572
0.00565572
0.00565572
0.00565572
0.00565572
0.00565572
0.00565572
0.00565572
0.00565572
0.00565572
0.00565572
0.00565572
0.00565572
0.00565572
0.00565572
0.00565572
1
1
1
1
1
0.136881
0.00681098
0.00586508
0.0056601
0.00565572
0.00565572
0.00565572
0.00565572
0.00565572
0.00565572
0.00565572
0.00565572
0.00576383
0.0059531
0.00618369
0.00646598
0.00921268
1
1
1
1
1
1
1
1
1
1
1
1
1
1
1
1
1
1
1
1
1
1
1
1
1
1
0.0146971
0.0103875
0.0097081
0.00926371
0.00867938
0.00809141
0.0077159
0.00736295
0.00705582
0.00677848
0.00650941
0.00625573
0.00610486
0.00596264
0.00581195
0.00569678
0.00565572
0.00565572
0.00565572
0.00565572
0.00565572
0.00565572
0.00565572
0.00565572
0.00565572
0.00565572
0.00565572
0.00565572
0.00565572
0.00565572
0.00565572
0.00565572
0.00565572
0.00565572
0.00565572
0.00565572
0.00565572
0.00565572
0.00565572
0.00565572
0.00565572
0.00565572
0.00565572
0.00565572
0.00565572
0.00565572
0.00565572
0.00565572
0.00565572
0.00565572
0.00565572
0.00565572
1
1
1
1
1
0.0849453
0.00571768
0.00565572
0.00565572
0.00565572
0.00565572
0.00565572
0.00565572
0.00565572
0.00565572
0.00565572
0.00565572
0.00565572
0.005786
0.00593441
0.00611085
0.00628081
0.00662918
0.00723779
1
1
1
1
1
1
1
1
1
1
1
1
1
1
1
1
1
1
1
1
1
1
1
1
1
0.93527
0.0106921
0.00990624
0.00934
0.00876583
0.00819464
0.00774477
0.0073949
0.00708062
0.0067861
0.00649673
0.00624706
0.00608314
0.0059178
0.00578574
0.00566616
0.00565572
0.00565572
0.00565572
0.00565572
0.00565572
0.00565572
0.00565572
0.00565572
0.00565572
0.00565572
0.00565572
0.00565572
0.00565572
0.00565572
0.00565572
0.00565572
0.00565572
0.00565572
0.00565572
0.00565572
0.00565572
0.00565572
0.00565572
0.00565572
0.00565572
0.00565572
0.00565572
0.00565572
0.00565572
0.00565572
0.00565572
0.00565572
0.00565572
0.00565572
0.00565572
1
1
1
1
1
0.00741464
0.00565572
0.00565572
0.00565572
0.00565572
0.00565572
0.00565572
0.00565572
0.00565572
0.00565572
0.00565572
0.00565572
0.00565572
0.0057094
0.00583313
0.00594266
0.00608779
0.00622858
0.00651431
0.00688766
0.00778752
1
1
1
1
1
1
1
1
1
1
1
1
1
1
1
1
1
1
1
1
1
1
1
1
1
0.010919
0.0100993
0.00941083
0.00885191
0.00828641
0.00775914
0.00742468
0.00710661
0.0067987
0.0065004
0.006232
0.00605869
0.00587799
0.0057647
0.00565572
0.00565572
0.00565572
0.00565572
0.00565572
0.00565572
0.00565572
0.00565572
0.00565572
0.00565572
0.00565572
0.00565572
0.00565572
0.00565572
0.00565572
0.00565572
0.00565572
0.00565572
0.00565572
0.00565572
0.00565572
0.00565572
0.00565572
0.00565572
0.00565572
0.00565572
0.00565572
0.00565572
0.00565572
0.00565572
0.00565572
0.00565572
0.00565572
0.00565572
0.00565572
1
1
1
1
1
0.00565572
0.00565572
0.00565572
0.00565572
0.00565572
0.00565572
0.00565572
0.00565572
0.00565572
0.00565572
0.00565572
0.00565572
0.00565572
0.00567295
0.00578047
0.00589266
0.00601827
0.00621228
0.00634127
0.0066253
0.00686161
0.00744683
0.0105752
1
1
1
1
1
1
1
1
1
1
1
1
1
1
1
1
1
1
1
1
1
1
1
1
0.0123765
0.0103447
0.00947237
0.00892387
0.00836711
0.00780865
0.00744942
0.00712715
0.00681266
0.00651111
0.00622602
0.00602597
0.00585277
0.00574719
0.00565572
0.00565572
0.00565572
0.00565572
0.00565572
0.00565572
0.00565572
0.00565572
0.00565572
0.00565572
0.00565572
0.00565572
0.00565572
0.00565572
0.00565572
0.00565572
0.00565572
0.00565572
0.00565572
0.00565572
0.00565572
0.00565572
0.00565572
0.00565572
0.00565572
0.00565572
0.00565572
0.00565572
0.00565572
0.00565572
0.00565572
0.00565572
0.00565572
0.00565572
1
1
1
1
1
0.00565572
0.00565572
0.00565572
0.00565572
0.00565572
0.00565572
0.00565572
0.00565572
0.00565572
0.00565572
0.00565572
0.00565572
0.00565572
0.00567864
0.00575766
0.00589404
0.00605546
0.00623212
0.00643996
0.00662286
0.00693453
0.00733141
0.00776541
0.0111848
1
1
1
1
1
1
1
1
1
1
1
1
1
1
1
1
1
1
1
1
1
1
1
1
0.0139208
0.0108438
0.00965181
0.00898364
0.00842891
0.00787412
0.00746492
0.00714118
0.00682479
0.00652018
0.00622948
0.00598183
0.00584684
0.00573517
0.00565572
0.00565572
0.00565572
0.00565572
0.00565572
0.00565572
0.00565572
0.00565572
0.00565572
0.00565572
0.00565572
0.00565572
0.00565572
0.00565572
0.00565572
0.00565572
0.00565572
0.00565572
0.00565572
0.00565572
0.00565572
0.00565572
0.00565572
0.00565572
0.00565572
0.00565572
0.00565572
0.00565572
0.00565572
0.00565572
0.00565572
0.00565572
0.00565572
1
1
1
1
1
0.00565572
0.00565572
0.00565572
0.00565572
0.00565572
0.00565572
0.00565572
0.00565572
0.00565572
0.00565572
0.00565572
0.00565572
0.00565572
0.00569398
0.00581661
0.00596438
0.00612423
0.00632775
0.00654858
0.00677035
0.00716008
0.00754868
0.00794997
0.00857419
1
1
1
1
1
1
1
1
1
1
1
1
1
1
1
1
1
1
1
1
1
1
1
1
1
0.0143395
0.0106996
0.00980107
0.00902137
0.0084703
0.00791757
0.00747269
0.00714856
0.0068285
0.00651491
0.00622492
0.00595055
0.00584073
0.00573284
0.00565572
0.00565572
0.00565572
0.00565572
0.00565572
0.00565572
0.00565572
0.00565572
0.00565572
0.00565572
0.00565572
0.00565572
0.00565572
0.00565572
0.00565572
0.00565572
0.00565572
0.00565572
0.00565572
0.00565572
0.00565572
0.00565572
0.00565572
0.00565572
0.00565572
0.00565572
0.00565572
0.00565572
0.00565572
0.00565572
0.00565572
0.00565572
1
1
1
1
0.645357
0.00565572
0.00565572
0.00565572
0.00565572
0.00565572
0.00565572
0.00565572
0.00565572
0.00565572
0.00565572
0.00565572
0.00565572
0.00565572
0.00573437
0.00590777
0.00606234
0.00622669
0.00644396
0.00667884
0.00704044
0.00743804
0.00782536
0.0101343
0.0109976
1
1
1
1
1
1
1
1
1
1
1
1
1
1
1
1
1
1
1
1
1
1
1
1
1
1
1
0.0108092
0.00990619
0.00903547
0.00848588
0.00793851
0.00746978
0.00714381
0.00682043
0.00650022
0.00620299
0.00593616
0.00583147
0.00572748
0.00565572
0.00565572
0.00565572
0.00565572
0.00565572
0.00565572
0.00565572
0.00565572
0.00565572
0.00565572
0.00565572
0.00565572
0.00565572
0.00565572
0.00565572
0.00565572
0.00565572
0.00565572
0.00565572
0.00565572
0.00565572
0.00565572
0.00565572
0.00565572
0.00565572
0.00565572
0.00565572
0.00565572
0.00565572
0.00565572
0.00565572
1
1
1
1
0.00605496
0.00565572
0.00565572
0.00565572
0.00565572
0.00565572
0.00565572
0.00565572
0.00565572
0.00565572
0.00565572
0.00565572
0.00565572
0.00565572
0.00581924
0.00602081
0.00618475
0.00634951
0.00658015
0.00693329
0.00732323
0.00771729
0.00814931
0.010605
0.99929
1
1
1
1
1
1
1
1
1
1
1
1
1
1
1
1
1
1
1
1
1
1
1
1
1
1
1
1
0.0108654
0.00995784
0.00902735
0.00847952
0.00793692
0.00745496
0.00712551
0.00679719
0.00647335
0.00616799
0.0059323
0.00582278
0.00572307
0.00565572
0.00565572
0.00565572
0.00565572
0.00565572
0.00565572
0.00565572
0.00565572
0.00565572
0.00565572
0.00565572
0.00565572
0.00565572
0.00565572
0.00565572
0.00565572
0.00565572
0.00565572
0.00565572
0.00565572
0.00565572
0.00565572
0.00565572
0.00565572
0.00565572
0.00565572
0.00565572
0.00565572
0.00565572
0.00565572
1
1
1
1
0.00604578
0.00565572
0.00565572
0.00565572
0.00565572
0.00565572
0.00565572
0.00565572
0.00565572
0.00565572
0.00565572
0.00565572
0.00565572
0.00572166
0.00596108
0.0061591
0.00632061
0.00649788
0.00684327
0.00724108
0.00761386
0.00805618
0.00849431
0.0111953
1
1
1
1
1
1
1
1
1
1
1
1
1
1
1
1
1
1
1
1
1
1
1
1
1
1
1
1
1
1
0.0108723
0.00996593
0.00904137
0.00844992
0.0079146
0.00742384
0.00708988
0.00675237
0.00643448
0.00612793
0.00592738
0.00582082
0.00571534
0.00565572
0.00565572
0.00565572
0.00565572
0.00565572
0.00565572
0.00565572
0.00565572
0.00565572
0.00565572
0.00565572
0.00565572
0.00565572
0.00565572
0.00565572
0.00565572
0.00565572
0.00565572
0.00565572
0.00565572
0.00565572
0.00565572
0.00565572
0.00565572
0.00565572
0.00565572
0.00565572
0.00565572
0.00565572
1
1
1
1
0.00604334
0.00565572
0.00565572
0.00565572
0.00565572
0.00565572
0.00565572
0.00565572
0.00565572
0.00565572
0.00565572
0.00565572
0.0056607
0.00588322
0.00611423
0.00629638
0.00646562
0.00674729
0.00716935
0.00755457
0.00795782
0.00840246
0.00883899
0.0118477
1
1
1
1
1
1
1
1
1
1
1
1
1
1
1
1
1
1
1
1
1
1
1
1
1
1
1
1
1
1
1
0.0108334
0.0099284
0.00901137
0.00840261
0.00787515
0.00737614
0.00703939
0.00669935
0.00637976
0.00610323
0.00591313
0.00581175
0.00570301
0.00565572
0.00565572
0.00565572
0.00565572
0.00565572
0.00565572
0.00565572
0.00565572
0.00565572
0.00565572
0.00565572
0.00565572
0.00565572
0.00565572
0.00565572
0.00565572
0.00565572
0.00565572
0.00565572
0.00565572
0.00565572
0.00565572
0.00565572
0.00565572
0.00565572
0.00565572
0.00565572
0.00565572
1
1
1
1
0.00609917
0.00565572
0.00565572
0.00565572
0.00565572
0.00565572
0.00565572
0.00565572
0.00565572
0.00565572
0.00565572
0.00565572
0.00582873
0.00606452
0.00626407
0.00643437
0.0066445
0.00707862
0.00750256
0.00784426
0.00830571
0.00872913
0.01133
0.0150517
1
1
1
1
1
1
1
1
1
1
1
1
1
1
1
1
1
1
1
1
1
1
1
1
1
1
1
1
1
1
1
0.0173557
0.010749
0.00984775
0.00893788
0.00833682
0.00781761
0.00731129
0.00697051
0.00663436
0.0063163
0.00607435
0.00590271
0.00579871
0.00568606
0.00565572
0.00565572
0.00565572
0.00565572
0.00565572
0.00565572
0.00565572
0.00565572
0.00565572
0.00565572
0.00565572
0.00565572
0.00565572
0.00565572
0.00565572
0.00565572
0.00565572
0.00565572
0.00565572
0.00565572
0.00565572
0.00565572
0.00565572
0.00565572
0.00565572
0.00565572
0.00565572
1
1
1
1
0.00618051
0.00565572
0.00565572
0.00565572
0.00565572
0.00565572
0.00565572
0.00565572
0.00565572
0.00565572
0.00565572
0.00581615
0.00602465
0.0062244
0.00640183
0.00657941
0.00697112
0.00742359
0.00780659
0.00820174
0.00861513
0.00905654
0.0120764
1
1
1
1
1
1
1
1
1
1
1
1
1
1
1
1
1
1
1
1
1
1
1
1
1
1
1
1
1
1
1
1
1
0.0126927
0.0106219
0.0097228
0.00882192
0.00825426
0.00774092
0.007236
0.00688643
0.0065597
0.00626169
0.00603531
0.00588983
0.00577954
0.0056632
0.00565572
0.00565572
0.00565572
0.00565572
0.00565572
0.00565572
0.00565572
0.00565572
0.00565572
0.00565572
0.00565572
0.00565572
0.00565572
0.00565572
0.00565572
0.00565572
0.00565572