# vtk DataFile Version 4.1
vtk output
ASCII
DATASET UNSTRUCTURED_GRID

POINTS	7401	float
0	0	0.0	
0	2.5	0.0	
0	5	0.0	
0	7.5	0.0	
0	10	0.0	
0	12.5	0.0	
0	15	0.0	
0	17.5	0.0	
0	20	0.0	
0	22.5	0.0	
0	25	0.0	
0	27.5	0.0	
0	30	0.0	
0	32.5	0.0	
0	35	0.0	
0	37.5	0.0	
0	40	0.0	
0	42.5	0.0	
0	45	0.0	
0	47.5	0.0	
0	50	0.0	
0	52.5	0.0	
0	55	0.0	
0	57.5	0.0	
0	60	0.0	
0	62.5	0.0	
0	65	0.0	
0	67.5	0.0	
0	70	0.0	
0	72.5	0.0	
0	75	0.0	
0	77.5	0.0	
0	80	0.0	
0	82.5	0.0	
0	85	0.0	
0	87.5	0.0	
0	90	0.0	
0	92.5	0.0	
0	95	0.0	
0	97.5	0.0	
0	100	0.0	
2.5	0	0.0	
2.5	2.5	0.0	
2.5	5	0.0	
2.5	7.5	0.0	
2.5	10	0.0	
2.5	12.5	0.0	
2.5	15	0.0	
2.5	17.5	0.0	
2.5	20	0.0	
2.5	22.5	0.0	
2.5	25	0.0	
2.5	27.5	0.0	
2.5	30	0.0	
2.5	32.5	0.0	
2.5	35	0.0	
2.5	37.5	0.0	
2.5	40	0.0	
2.5	42.5	0.0	
2.5	45	0.0	
2.5	47.5	0.0	
2.5	50	0.0	
2.5	52.5	0.0	
2.5	55	0.0	
2.5	57.5	0.0	
2.5	60	0.0	
2.5	62.5	0.0	
2.5	65	0.0	
2.5	67.5	0.0	
2.5	70	0.0	
2.5	72.5	0.0	
2.5	75	0.0	
2.5	77.5	0.0	
2.5	80	0.0	
2.5	82.5	0.0	
2.5	85	0.0	
2.5	87.5	0.0	
2.5	90	0.0	
2.5	92.5	0.0	
2.5	95	0.0	
2.5	97.5	0.0	
2.5	100	0.0	
5	0	0.0	
5	2.5	0.0	
5	5	0.0	
5	7.5	0.0	
5	10	0.0	
5	12.5	0.0	
5	15	0.0	
5	17.5	0.0	
5	20	0.0	
5	22.5	0.0	
5	25	0.0	
5	27.5	0.0	
5	30	0.0	
5	32.5	0.0	
5	35	0.0	
5	37.5	0.0	
5	40	0.0	
5	42.5	0.0	
5	45	0.0	
5	47.5	0.0	
5	50	0.0	
5	52.5	0.0	
5	55	0.0	
5	57.5	0.0	
5	60	0.0	
5	62.5	0.0	
5	65	0.0	
5	67.5	0.0	
5	70	0.0	
5	72.5	0.0	
5	75	0.0	
5	77.5	0.0	
5	80	0.0	
5	82.5	0.0	
5	85	0.0	
5	87.5	0.0	
5	90	0.0	
5	92.5	0.0	
5	95	0.0	
5	97.5	0.0	
5	100	0.0	
7.5	0	0.0	
7.5	2.5	0.0	
7.5	5	0.0	
7.5	7.5	0.0	
7.5	10	0.0	
7.5	12.5	0.0	
7.5	15	0.0	
7.5	17.5	0.0	
7.5	20	0.0	
7.5	22.5	0.0	
7.5	25	0.0	
7.5	27.5	0.0	
7.5	30	0.0	
7.5	32.5	0.0	
7.5	35	0.0	
7.5	37.5	0.0	
7.5	40	0.0	
7.5	42.5	0.0	
7.5	45	0.0	
7.5	47.5	0.0	
7.5	50	0.0	
7.5	52.5	0.0	
7.5	55	0.0	
7.5	57.5	0.0	
7.5	60	0.0	
7.5	62.5	0.0	
7.5	65	0.0	
7.5	67.5	0.0	
7.5	70	0.0	
7.5	72.5	0.0	
7.5	75	0.0	
7.5	77.5	0.0	
7.5	80	0.0	
7.5	82.5	0.0	
7.5	85	0.0	
7.5	87.5	0.0	
7.5	90	0.0	
7.5	92.5	0.0	
7.5	95	0.0	
7.5	97.5	0.0	
7.5	100	0.0	
10	0	0.0	
10	2.5	0.0	
10	5	0.0	
10	7.5	0.0	
10	10	0.0	
10	12.5	0.0	
10	15	0.0	
10	17.5	0.0	
10	20	0.0	
10	22.5	0.0	
10	25	0.0	
10	27.5	0.0	
10	30	0.0	
10	32.5	0.0	
10	35	0.0	
10	37.5	0.0	
10	40	0.0	
10	42.5	0.0	
10	45	0.0	
10	47.5	0.0	
10	50	0.0	
10	52.5	0.0	
10	55	0.0	
10	57.5	0.0	
10	60	0.0	
10	62.5	0.0	
10	65	0.0	
10	67.5	0.0	
10	70	0.0	
10	72.5	0.0	
10	75	0.0	
10	77.5	0.0	
10	80	0.0	
10	82.5	0.0	
10	85	0.0	
10	87.5	0.0	
10	90	0.0	
10	92.5	0.0	
10	95	0.0	
10	97.5	0.0	
10	100	0.0	
12.5	0	0.0	
12.5	2.5	0.0	
12.5	5	0.0	
12.5	7.5	0.0	
12.5	10	0.0	
12.5	12.5	0.0	
12.5	15	0.0	
12.5	17.5	0.0	
12.5	20	0.0	
12.5	22.5	0.0	
12.5	25	0.0	
12.5	27.5	0.0	
12.5	30	0.0	
12.5	32.5	0.0	
12.5	35	0.0	
12.5	37.5	0.0	
12.5	40	0.0	
12.5	42.5	0.0	
12.5	45	0.0	
12.5	47.5	0.0	
12.5	50	0.0	
12.5	52.5	0.0	
12.5	55	0.0	
12.5	57.5	0.0	
12.5	60	0.0	
12.5	62.5	0.0	
12.5	65	0.0	
12.5	67.5	0.0	
12.5	70	0.0	
12.5	72.5	0.0	
12.5	75	0.0	
12.5	77.5	0.0	
12.5	80	0.0	
12.5	82.5	0.0	
12.5	85	0.0	
12.5	87.5	0.0	
12.5	90	0.0	
12.5	92.5	0.0	
12.5	95	0.0	
12.5	97.5	0.0	
12.5	100	0.0	
15	0	0.0	
15	2.5	0.0	
15	5	0.0	
15	7.5	0.0	
15	10	0.0	
15	12.5	0.0	
15	15	0.0	
15	17.5	0.0	
15	20	0.0	
15	22.5	0.0	
15	25	0.0	
15	27.5	0.0	
15	30	0.0	
15	32.5	0.0	
15	35	0.0	
15	37.5	0.0	
15	40	0.0	
15	42.5	0.0	
15	45	0.0	
15	47.5	0.0	
15	50	0.0	
15	52.5	0.0	
15	55	0.0	
15	57.5	0.0	
15	60	0.0	
15	62.5	0.0	
15	65	0.0	
15	67.5	0.0	
15	70	0.0	
15	72.5	0.0	
15	75	0.0	
15	77.5	0.0	
15	80	0.0	
15	82.5	0.0	
15	85	0.0	
15	87.5	0.0	
15	90	0.0	
15	92.5	0.0	
15	95	0.0	
15	97.5	0.0	
15	100	0.0	
17.5	0	0.0	
17.5	2.5	0.0	
17.5	5	0.0	
17.5	7.5	0.0	
17.5	10	0.0	
17.5	12.5	0.0	
17.5	15	0.0	
17.5	17.5	0.0	
17.5	20	0.0	
17.5	22.5	0.0	
17.5	25	0.0	
17.5	27.5	0.0	
17.5	30	0.0	
17.5	32.5	0.0	
17.5	35	0.0	
17.5	37.5	0.0	
17.5	40	0.0	
17.5	42.5	0.0	
17.5	45	0.0	
17.5	47.5	0.0	
17.5	50	0.0	
17.5	52.5	0.0	
17.5	55	0.0	
17.5	57.5	0.0	
17.5	60	0.0	
17.5	62.5	0.0	
17.5	65	0.0	
17.5	67.5	0.0	
17.5	70	0.0	
17.5	72.5	0.0	
17.5	75	0.0	
17.5	77.5	0.0	
17.5	80	0.0	
17.5	82.5	0.0	
17.5	85	0.0	
17.5	87.5	0.0	
17.5	90	0.0	
17.5	92.5	0.0	
17.5	95	0.0	
17.5	97.5	0.0	
17.5	100	0.0	
20	0	0.0	
20	2.5	0.0	
20	5	0.0	
20	7.5	0.0	
20	10	0.0	
20	12.5	0.0	
20	15	0.0	
20	17.5	0.0	
20	20	0.0	
20	22.5	0.0	
20	25	0.0	
20	27.5	0.0	
20	30	0.0	
20	32.5	0.0	
20	35	0.0	
20	37.5	0.0	
20	40	0.0	
20	42.5	0.0	
20	45	0.0	
20	47.5	0.0	
20	50	0.0	
20	52.5	0.0	
20	55	0.0	
20	57.5	0.0	
20	60	0.0	
20	62.5	0.0	
20	65	0.0	
20	67.5	0.0	
20	70	0.0	
20	72.5	0.0	
20	75	0.0	
20	77.5	0.0	
20	80	0.0	
20	82.5	0.0	
20	85	0.0	
20	87.5	0.0	
20	90	0.0	
20	92.5	0.0	
20	95	0.0	
20	97.5	0.0	
20	100	0.0	
22.5	0	0.0	
22.5	2.5	0.0	
22.5	5	0.0	
22.5	7.5	0.0	
22.5	10	0.0	
22.5	12.5	0.0	
22.5	15	0.0	
22.5	17.5	0.0	
22.5	20	0.0	
22.5	22.5	0.0	
22.5	25	0.0	
22.5	27.5	0.0	
22.5	30	0.0	
22.5	32.5	0.0	
22.5	35	0.0	
22.5	37.5	0.0	
22.5	40	0.0	
22.5	42.5	0.0	
22.5	45	0.0	
22.5	47.5	0.0	
22.5	50	0.0	
22.5	52.5	0.0	
22.5	55	0.0	
22.5	57.5	0.0	
22.5	60	0.0	
22.5	62.5	0.0	
22.5	65	0.0	
22.5	67.5	0.0	
22.5	70	0.0	
22.5	72.5	0.0	
22.5	75	0.0	
22.5	77.5	0.0	
22.5	80	0.0	
22.5	82.5	0.0	
22.5	85	0.0	
22.5	87.5	0.0	
22.5	90	0.0	
22.5	92.5	0.0	
22.5	95	0.0	
22.5	97.5	0.0	
22.5	100	0.0	
25	0	0.0	
25	2.5	0.0	
25	5	0.0	
25	7.5	0.0	
25	10	0.0	
25	12.5	0.0	
25	15	0.0	
25	17.5	0.0	
25	20	0.0	
25	22.5	0.0	
25	25	0.0	
25	27.5	0.0	
25	30	0.0	
25	32.5	0.0	
25	35	0.0	
25	37.5	0.0	
25	40	0.0	
25	42.5	0.0	
25	45	0.0	
25	47.5	0.0	
25	50	0.0	
25	52.5	0.0	
25	55	0.0	
25	57.5	0.0	
25	60	0.0	
25	62.5	0.0	
25	65	0.0	
25	67.5	0.0	
25	70	0.0	
25	72.5	0.0	
25	75	0.0	
25	77.5	0.0	
25	80	0.0	
25	82.5	0.0	
25	85	0.0	
25	87.5	0.0	
25	90	0.0	
25	92.5	0.0	
25	95	0.0	
25	97.5	0.0	
25	100	0.0	
27.5	0	0.0	
27.5	2.5	0.0	
27.5	5	0.0	
27.5	7.5	0.0	
27.5	10	0.0	
27.5	12.5	0.0	
27.5	15	0.0	
27.5	17.5	0.0	
27.5	20	0.0	
27.5	22.5	0.0	
27.5	25	0.0	
27.5	27.5	0.0	
27.5	30	0.0	
27.5	32.5	0.0	
27.5	35	0.0	
27.5	37.5	0.0	
27.5	40	0.0	
27.5	42.5	0.0	
27.5	45	0.0	
27.5	47.5	0.0	
27.5	50	0.0	
27.5	52.5	0.0	
27.5	55	0.0	
27.5	57.5	0.0	
27.5	60	0.0	
27.5	62.5	0.0	
27.5	65	0.0	
27.5	67.5	0.0	
27.5	70	0.0	
27.5	72.5	0.0	
27.5	75	0.0	
27.5	77.5	0.0	
27.5	80	0.0	
27.5	82.5	0.0	
27.5	85	0.0	
27.5	87.5	0.0	
27.5	90	0.0	
27.5	92.5	0.0	
27.5	95	0.0	
27.5	97.5	0.0	
27.5	100	0.0	
30	0	0.0	
30	2.5	0.0	
30	5	0.0	
30	7.5	0.0	
30	10	0.0	
30	12.5	0.0	
30	15	0.0	
30	17.5	0.0	
30	20	0.0	
30	22.5	0.0	
30	25	0.0	
30	27.5	0.0	
30	30	0.0	
30	32.5	0.0	
30	35	0.0	
30	37.5	0.0	
30	40	0.0	
30	42.5	0.0	
30	45	0.0	
30	47.5	0.0	
30	50	0.0	
30	52.5	0.0	
30	55	0.0	
30	57.5	0.0	
30	60	0.0	
30	62.5	0.0	
30	65	0.0	
30	67.5	0.0	
30	70	0.0	
30	72.5	0.0	
30	75	0.0	
30	77.5	0.0	
30	80	0.0	
30	82.5	0.0	
30	85	0.0	
30	87.5	0.0	
30	90	0.0	
30	92.5	0.0	
30	95	0.0	
30	97.5	0.0	
30	100	0.0	
32.5	0	0.0	
32.5	2.5	0.0	
32.5	5	0.0	
32.5	7.5	0.0	
32.5	10	0.0	
32.5	12.5	0.0	
32.5	15	0.0	
32.5	17.5	0.0	
32.5	20	0.0	
32.5	22.5	0.0	
32.5	25	0.0	
32.5	27.5	0.0	
32.5	30	0.0	
32.5	32.5	0.0	
32.5	35	0.0	
32.5	37.5	0.0	
32.5	40	0.0	
32.5	42.5	0.0	
32.5	45	0.0	
32.5	47.5	0.0	
32.5	50	0.0	
32.5	52.5	0.0	
32.5	55	0.0	
32.5	57.5	0.0	
32.5	60	0.0	
32.5	62.5	0.0	
32.5	65	0.0	
32.5	67.5	0.0	
32.5	70	0.0	
32.5	72.5	0.0	
32.5	75	0.0	
32.5	77.5	0.0	
32.5	80	0.0	
32.5	82.5	0.0	
32.5	85	0.0	
32.5	87.5	0.0	
32.5	90	0.0	
32.5	92.5	0.0	
32.5	95	0.0	
32.5	97.5	0.0	
32.5	100	0.0	
35	0	0.0	
35	2.5	0.0	
35	5	0.0	
35	7.5	0.0	
35	10	0.0	
35	12.5	0.0	
35	15	0.0	
35	17.5	0.0	
35	20	0.0	
35	22.5	0.0	
35	25	0.0	
35	27.5	0.0	
35	30	0.0	
35	32.5	0.0	
35	35	0.0	
35	37.5	0.0	
35	40	0.0	
35	42.5	0.0	
35	45	0.0	
35	47.5	0.0	
35	50	0.0	
35	52.5	0.0	
35	55	0.0	
35	57.5	0.0	
35	60	0.0	
35	62.5	0.0	
35	65	0.0	
35	67.5	0.0	
35	70	0.0	
35	72.5	0.0	
35	75	0.0	
35	77.5	0.0	
35	80	0.0	
35	82.5	0.0	
35	85	0.0	
35	87.5	0.0	
35	90	0.0	
35	92.5	0.0	
35	95	0.0	
35	97.5	0.0	
35	100	0.0	
37.5	0	0.0	
37.5	2.5	0.0	
37.5	5	0.0	
37.5	7.5	0.0	
37.5	10	0.0	
37.5	12.5	0.0	
37.5	15	0.0	
37.5	17.5	0.0	
37.5	20	0.0	
37.5	22.5	0.0	
37.5	25	0.0	
37.5	27.5	0.0	
37.5	30	0.0	
37.5	32.5	0.0	
37.5	35	0.0	
37.5	37.5	0.0	
37.5	40	0.0	
37.5	42.5	0.0	
37.5	45	0.0	
37.5	47.5	0.0	
37.5	50	0.0	
37.5	52.5	0.0	
37.5	55	0.0	
37.5	57.5	0.0	
37.5	60	0.0	
37.5	62.5	0.0	
37.5	65	0.0	
37.5	67.5	0.0	
37.5	70	0.0	
37.5	72.5	0.0	
37.5	75	0.0	
37.5	77.5	0.0	
37.5	80	0.0	
37.5	82.5	0.0	
37.5	85	0.0	
37.5	87.5	0.0	
37.5	90	0.0	
37.5	92.5	0.0	
37.5	95	0.0	
37.5	97.5	0.0	
37.5	100	0.0	
40	0	0.0	
40	2.5	0.0	
40	5	0.0	
40	7.5	0.0	
40	10	0.0	
40	12.5	0.0	
40	15	0.0	
40	17.5	0.0	
40	20	0.0	
40	22.5	0.0	
40	25	0.0	
40	27.5	0.0	
40	30	0.0	
40	32.5	0.0	
40	35	0.0	
40	37.5	0.0	
40	40	0.0	
40	42.5	0.0	
40	45	0.0	
40	47.5	0.0	
40	50	0.0	
40	52.5	0.0	
40	55	0.0	
40	57.5	0.0	
40	60	0.0	
40	62.5	0.0	
40	65	0.0	
40	67.5	0.0	
40	70	0.0	
40	72.5	0.0	
40	75	0.0	
40	77.5	0.0	
40	80	0.0	
40	82.5	0.0	
40	85	0.0	
40	87.5	0.0	
40	90	0.0	
40	92.5	0.0	
40	95	0.0	
40	97.5	0.0	
40	100	0.0	
42.5	0	0.0	
42.5	2.5	0.0	
42.5	5	0.0	
42.5	7.5	0.0	
42.5	10	0.0	
42.5	12.5	0.0	
42.5	15	0.0	
42.5	17.5	0.0	
42.5	20	0.0	
42.5	22.5	0.0	
42.5	25	0.0	
42.5	27.5	0.0	
42.5	30	0.0	
42.5	32.5	0.0	
42.5	35	0.0	
42.5	37.5	0.0	
42.5	40	0.0	
42.5	42.5	0.0	
42.5	45	0.0	
42.5	47.5	0.0	
42.5	50	0.0	
42.5	52.5	0.0	
42.5	55	0.0	
42.5	57.5	0.0	
42.5	60	0.0	
42.5	62.5	0.0	
42.5	65	0.0	
42.5	67.5	0.0	
42.5	70	0.0	
42.5	72.5	0.0	
42.5	75	0.0	
42.5	77.5	0.0	
42.5	80	0.0	
42.5	82.5	0.0	
42.5	85	0.0	
42.5	87.5	0.0	
42.5	90	0.0	
42.5	92.5	0.0	
42.5	95	0.0	
42.5	97.5	0.0	
42.5	100	0.0	
45	0	0.0	
45	2.5	0.0	
45	5	0.0	
45	7.5	0.0	
45	10	0.0	
45	12.5	0.0	
45	15	0.0	
45	17.5	0.0	
45	20	0.0	
45	22.5	0.0	
45	25	0.0	
45	27.5	0.0	
45	30	0.0	
45	32.5	0.0	
45	35	0.0	
45	37.5	0.0	
45	40	0.0	
45	42.5	0.0	
45	45	0.0	
45	47.5	0.0	
45	50	0.0	
45	52.5	0.0	
45	55	0.0	
45	57.5	0.0	
45	60	0.0	
45	62.5	0.0	
45	65	0.0	
45	67.5	0.0	
45	70	0.0	
45	72.5	0.0	
45	75	0.0	
45	77.5	0.0	
45	80	0.0	
45	82.5	0.0	
45	85	0.0	
45	87.5	0.0	
45	90	0.0	
45	92.5	0.0	
45	95	0.0	
45	97.5	0.0	
45	100	0.0	
47.5	0	0.0	
47.5	2.5	0.0	
47.5	5	0.0	
47.5	7.5	0.0	
47.5	10	0.0	
[...]
CELL_DATA	2400
SCALARS Rho0 float
LOOKUP_TABLE default
1
1
1
1
1
1
1
1
1
1
0.161708
0.114434
0.0825876
0.0524727
0.0330925
0.0235856
0.0175813
0.014515
0.0129092
0.012263
0.012263
0.0129092
0.014515
0.0175813
0.0235856
0.0330925
0.0524727
0.0825876
0.114434
0.161708
1
1
1
1
1
1
1
1
1
1
1
1
1
1
1
1
1
1
1
1
0.200642
0.12829
0.0853564
0.0561862
0.0386295
0.0270457
0.0202081
0.0162184
0.0141239
0.0133127
0.0133127
0.0141239
0.0162184
0.0202081
0.0270457
0.0386295
0.0561862
0.0853564
0.12829
0.200642
1
1
1
1
1
1
1
1
1
1
1
1
1
1
1
1
1
1
1
1
0.562632
0.204797
0.112024
0.0802383
0.0554101
0.038453
0.0277338
0.0212588
0.0178346
0.0162954
0.0162954
0.0178346
0.0212588
0.0277338
0.038453
0.0554101
0.0802383
0.112024
0.204797
0.562632
1
1
1
1
1
1
1
1
1
1
1
1
1
1
1
1
1
1
1
1
1
0.262488
0.194958
0.117188
0.077992
0.0557775
0.039015
0.0285907
0.0226593
0.0200895
0.0200895
0.0226593
0.0285907
0.039015
0.0557775
0.077992
0.117188
0.194958
0.262488
1
1
1
1
1
1
1
1
1
1
1
1
1
1
1
1
1
1
1
1
1
1
0.628407
0.286959
0.181835
0.119424
0.0789848
0.0559457
0.0400208
0.0300918
0.0255726
0.0255726
0.0300918
0.0400208
0.0559457
0.0789848
0.119424
0.181835
0.286959
0.628407
1
1
1
1
1
1
1
1
1
1
1
1
1
1
1
1
1
1
1
1
1
1
1
0.390866
0.288554
0.186145
0.11887
0.0799894
0.056545
0.041801
0.0340057
0.0340057
0.041801
0.056545
0.0799894
0.11887
0.186145
0.288554
0.390866
1
1
1
1
1
1
1
1
1
1
1
1
1
1
1
1
1
1
1
1
1
1
1
1
0.82162
0.403999
0.279217
0.189948
0.120127
0.0806821
0.0585715
0.0474269
0.0474269
0.0585715
0.0806821
0.120127
0.189948
0.279217
0.403999
0.82162
1
1
1
1
1
1
1
1
1
1
1
1
1
1
1
1
1
1
1
1
1
1
1
1
1
0.569059
0.4148
0.282697
0.189499
0.122106
0.0834164
0.0669685
0.0669685
0.0834164
0.122106
0.189499
0.282697
0.4148
0.569059
1
1
1
1
1
1
1
1
1
1
1
1
1
1
1
1
1
1
1
1
1
1
1
1
1
1
0.953507
0.537155
0.40796
0.288024
0.190488
0.12628
0.0954862
0.0954862
0.12628
0.190488
0.288024
0.40796
0.537155
0.953507
1
1
1
1
1
1
1
1
1
1
1
1
1
1
1
1
1
1
1
1
1
1
1
1
1
1
1
0.706736
0.548104
0.407609
0.290799
0.19704
0.143386
0.143386
0.19704
0.290799
0.407609
0.548104
0.706736
1
1
1
1
1
1
1
1
1
1
1
1
1
1
1
1
1
1
1
1
1
1
1
1
1
1
1
1
0.957352
0.632427
0.537371
0.41412
0.299648
0.225022
0.225022
0.299648
0.41412
0.537371
0.632427
0.957352
1
1
1
1
1
1
1
1
1
1
1
1
1
1
1
1
1
1
1
1
1
1
1
1
1
1
1
1
1
0.750728
0.638758
0.532485
0.430068
0.347736
0.347736
0.430068
0.532485
0.638758
0.750728
1
1
1
1
1
1
1
1
1
1
1
1
1
1
1
1
1
1
1
1
1
1
1
1
0.70759
1
1
1
1
1
0.958196
0.677418
0.62278
0.552368
0.495493
0.495493
0.552368
0.62278
0.677418
0.958196
1
1
1
1
1
0.70759
1
1
1
1
1
1
1
1
1
1
1
1
1
1
1
1
1
1
0.179726
1
1
1
1
1
1
0.730358
0.681868
0.645663
0.629673
0.629673
0.645663
0.681868
0.730358
1
1
1
1
1
1
0.179726
1
1
1
1
1
1
1
1
1
1
1
1
1
1
1
1
1
1
0.0820715
0.638075
1
1
1
1
1
0.950154
0.716904
0.725282
0.729446
0.729446
0.725282
0.716904
0.950154
1
1
1
1
1
0.638075
0.0820715
1
1
1
1
1
1
1
1
1
1
1
1
1
1
1
1
1
1
0.0829081
0.117176
1
1
1
1
1
1
0.768601
0.785661
0.790217
0.790217
0.785661
0.768601
1
1
1
1
1
1
0.117176
0.0829081
1
1
1
1
1
1
1
1
1
1
1
1
1
1
1
1
1
1
0.107962
0.10576
0.502846
1
1
1
1
1
0.93242
0.819431
0.824207
0.824207
0.819431
0.93242
1
1
1
1
1
0.502846
0.10576
0.107962
1
1
1
1
1
1
1
1
1
1
1
1
1
1
1
1
1
1
0.161098
0.144064
0.155379
1
1
1
1
1
0.987555
0.890127
0.849833
0.849833
0.890127
0.987555
1
1
1
1
1
0.155379
0.144064
0.161098
1
1
1
1
1
1
1
1
1
1
1
1
1
1
1
1
1
1
0.242338
0.197491
0.181626
0.490512
1
1
1
1
1
0.953225
0.889665
0.889665
0.953225
1
1
1
1
1
0.490512
0.181626
0.197491
0.242338
1
1
1
1
1
1
1
1
1
1
1
1
1
1
1
1
1
1
0.299988
0.267249
0.252387
0.268823
1
1
1
1
1
0.985223
0.971657
0.971657
0.985223
1
1
1
1
1
0.268823
0.252387
0.267249
0.299988
1
1
1
1
1
1
1
1
1
1
1
1
1
1
1
1
1
1
0.331071
0.328521
0.328606
0.323764
0.533272
1
1
1
1
0.982772
0.986865
0.986865
0.982772
1
1
1
1
0.533272
0.323764
0.328606
0.328521
0.331071
1
1
1
1
1
1
1
1
1
1
1
1
1
1
1
1
1
1
0.368653
0.377262
0.381411
0.363544
0.320513
1
1
1
1
1
1
1
1
1
1
1
1
0.320513
0.363544
0.381411
0.377262
0.368653
1
1
1
1
1
1
1
1
1
1
1
1
1
1
1
1
1
1
0.407492
0.415371
0.39647
0.370532
0.339393
0.453034
1
1
1
1
1
1
1
1
1
1
0.453034
0.339393
0.370532
0.39647
0.415371
0.407492
1
1
1
1
1
1
1
1
1
1
1
1
1
1
1
1
1
1
0.437546
0.423913
0.396622
0.370686
0.371627
0.382351
0.807285
1
1
1
1
1
1
1
1
0.807285
0.382351
0.371627
0.370686
0.396622
0.423913
0.437546
1
1
1
1
1
1
1
1
1
1
1
1
1
1
1
1
1
1
0.440261
0.408152
0.399843
0.402315
0.406841
0.43105
0.575038
1
1
1
1
1
1
1
1
0.575038
0.43105
0.406841
0.402315
0.399843
0.408152
0.440261
1
1
1
1
1
1
1
1
1
1
1
1
1
1
1
1
1
1
0.397157
0.410669
0.423835
0.441424
0.470076
0.795978
1
1
1
1
1
1
1
1
1
1
0.795978
0.470076
0.441424
0.423835
0.410669
0.397157
1
1
1
1
1
1
1
1
1
1
1
1
1
1
1
1
0.116721
1
0.465913
0.419303
0.460842
0.634142
0.981058
1
1
1
1
0.826173
0.920439
0.920439
0.826173
1
1
1
1
0.981058
0.634142
0.460842
0.419303
0.465913
1
0.116721
1
1
1
1
1
1
1
1
1
1
1
1
1
1
0.0264572
1
0.626605
0.596191
0.973636
1
1
1
1
0.714536
0.68767
0.7389
0.817267
0.817267
0.7389
0.68767
0.714536
1
1
1
1
0.973636
0.596191
0.626605
1
0.0264572
1
1
1
1
1
1
1
1
1
1
1
1
1
1
0.0129515
1
1
1
1
1
1
0.75246
0.593387
0.579204
0.662113
0.713637
0.724417
0.724417
0.713637
0.662113
0.579204
0.593387
0.75246
1
1
1
1
1
1
0.0129515
1
1
1
1
1
1
1
1
1
1
1
1
1
1
1
1
1
1
1
0.863233
0.628913
0.510017
0.565658
0.631049
0.661302
0.649505
0.63523
0.63523
0.649505
0.661302
0.631049
0.565658
0.510017
0.628913
0.863233
1
1
1
1
1
1
1
1
1
1
1
1
1
1
1
1
1
1
1
1
1
1
1
0.68546
0.500441
0.509887
0.556034
0.615301
0.638791
0.619097
0.58551
0.561397
0.561397
0.58551
0.619097
0.638791
0.615301
0.556034
0.509887
0.500441
0.68546
1
1
1
1
1
1
1
1
1
1
1
1
1
1
1
1
1
1
1
0.648006
0.579232
0.491963
0.518847
0.522745
0.559962
0.611134
0.625171
0.600184
0.561118
0.531006
0.514484
0.514484
0.531006
0.561118
0.600184
0.625171
0.611134
0.559962
0.522745
0.518847
0.491963
0.579232
0.648006
1
1
1
1
1
1
1
1
1
1
1
1
1
1
1
1
0.423156
0.486211
0.506588
0.536651
0.579614
0.615459
0.620677
0.589281
0.548227
0.515828
0.493509
0.483271
0.483271
0.493509
0.515828
0.548227
0.589281
0.620677
0.615459
0.579614
0.536651
0.506588
0.486211
0.423156
1
1
1
1
1
1
1
1
1
1
1
1
1
1
1
1
0.435312
0.483691
0.530124
0.576747
0.621246
0.623466
0.586843
0.544277
0.510465
0.486794
0.471077
0.462029
0.462029
0.471077
0.486794
0.510465
0.544277
0.586843
0.623466
0.621246
0.576747
0.530124
0.483691
0.435312
1
1
1
1
1
1
1
1
1
1
1
1
1
1
1
1
0.465698
0.509785
0.567441
0.602583
0.606576
0.582147
0.545801
0.51438
0.491082
0.470555
0.456716
0.450537
0.450537
0.456716
0.470555
0.491082
0.51438
0.545801
0.582147
0.606576
0.602583
0.567441
0.509785
0.465698
1
1
1
1
1
1
1
1
1
1
1
1
1
1
1
1
0.524404
0.554566
0.572967
0.574229
0.552483
0.52917
0.51574
0.500221
0.479284
0.461342
0.450184
0.445731
0.445731
0.450184
0.461342
0.479284
0.500221
0.51574
0.52917
0.552483
0.574229
0.572967
0.554566
0.524404
1
1
1
1
1
1
1
1
1
1
1
1
1
1
1
1
0.56474
0.56495
0.536892
0.509911
0.496149
0.493546
0.492303
0.48371
0.470622
0.459262
0.451107
0.445858
0.445858
0.451107
0.459262
0.470622
0.48371
0.492303
0.493546
0.496149
0.509911
0.536892
0.56495
0.56474
1
1
1
1
1
1
1
1
0.454205
1
1
1
1
1
1
1
0.558007
0.525206
0.486827
0.460842
0.459376
0.466741
0.465298
0.463466
0.463783
0.460908
0.455241
0.451318
0.451318
0.455241
0.460908
0.463783
0.463466
0.465298
0.466741
0.459376
0.460842
0.486827
0.525206
0.558007
1
1
1
1
1
1
1
0.454205
0.0307085
1
1
1
1
1
1
1
0.516835
0.474974
0.444594
0.441818
0.438485
0.433853
0.437403
0.446803
0.455686
0.459876
0.460501
0.460408
0.460408
0.460501
0.459876
0.455686
0.446803
0.437403
0.433853
0.438485
0.441818
0.444594
0.474974
0.516835
1
1
1
1
1
1
1
0.0307085
1e-10
0.958395
1
1
1
1
1
1
0.534905
0.440165
0.428542
0.427515
0.415809
0.408537
0.416729
0.431942
0.444609
0.455846
0.464641
0.468541
0.468541
0.464641
0.455846
0.444609
0.431942
0.416729
0.408537
0.415809
0.427515
0.428542
0.440165
0.534905
1
1
1
1
1
1
0.958395
1e-10
1e-10
0.336807
1
1
1
1
1
1
0.862119
0.422016
0.417015
0.401903
0.396687
0.399045
0.405697
0.41619
0.433082
0.450893
0.464272
0.471447
0.471447
0.464272
0.450893
0.433082
0.41619
0.405697
0.399045
0.396687
0.401903
0.417015
0.422016
0.862119
1
1
1
1
1
1
0.336807
1e-10
1e-10
0.00592503
1
1
1
1
1
1
1
0.395868
0.385978
0.382624
0.387338
0.395409
0.398612
0.407546
0.424472
0.44287
0.45809
0.466954
0.466954
0.45809
0.44287
0.424472
0.407546
0.398612
0.395409
0.387338
0.382624
0.385978
0.395868
1
1
1
1
1
1
1
0.00592503
1e-10
1e-10
1e-10
0.446599
1
1
1
1
1
1
0.44753
0.362307
0.366848
0.384109
0.387661
0.396346
0.407678
0.418647
0.432401
0.446076
0.454555
0.454555
0.446076
0.432401
0.418647
0.407678
0.396346
0.387661
0.384109
0.366848
0.362307
0.44753
1
1
1
1
1
1
0.446599
1e-10
1e-10
1e-10
1e-10
0.0221814
1
1
1
1
1
1
0.888512
0.36584
0.362865
0.368794
0.384697
0.397837
0.407211
0.415034
0.422415
0.429949
0.434745
0.434745
0.429949
0.422415
0.415034
0.407211
0.397837
0.384697
0.368794
0.362865
0.36584
0.888512
1
1
1
1
1
1
0.0221814
1e-10
1e-10
1e-10
1e-10
1e-10
0.51642
1
1
1
1
1
1
0.398625
0.367271
0.362344
0.381301
0.395368
0.404528
0.410392
0.41284
0.412112
0.41083
0.41083
0.412112
0.41284
0.410392
0.404528
0.395368
0.381301
0.362344
0.367271
0.398625
1
1
1
1
1
1
0.51642
1e-10
1e-10
1e-10
1e-10
1e-10
1e-10
0.0421072
1
1
1
1
1
1
0.755276
0.374062
0.372626
0.375035
0.388398
0.397925
0.402562
0.400404
0.393998
0.388835
0.388835
0.393998
0.400404
0.402562
0.397925
0.388398
0.375035
0.372626
0.374062
0.755276
1
1
1
1
1
1
0.0421072
1e-10
1e-10
1e-10
1e-10
1e-10
1e-10
4.9926e-06
0.51149
1
1
1
1
1
1
0.424957
0.386417
0.375701
0.37884
0.38684
0.388419
0.384154
0.377686
0.372703
0.372703
0.377686
0.384154
0.388419
0.38684
0.37884
0.375701
0.386417
0.424957
1
1
1
1
1
1
0.51149
4.9926e-06
1e-10
1e-10
1e-10
1e-10
1e-10
1e-10
1e-10
0.0318523
1
1
1
1
1
1
0.899334
0.392581
0.380108
0.374437
0.372169
0.368535
0.366429
0.363487
0.361799
0.361799
0.363487
0.366429
0.368535
0.372169
0.374437
0.380108
0.392581
0.899334
1
1
1
1
1
1
0.0318523
1e-10
1e-10
1e-10
1e-10
1e-10
1e-10
1e-10
1e-10
3.95001e-05
0.429599
1
1
1
1
1
1
0.553274
0.392405
0.365362
0.355581
0.351556
0.348288
0.351029
0.352987
0.352987
0.351029
0.348288
0.351556
0.355581
0.365362
0.392405
0.553274
1
1
1
1
1
1
0.429599
3.95001e-05
1e-10
1e-10
1e-10
1e-10
1e-10
1e-10
1e-10
1e-10
1e-10
0.00478379
1
1
1
1
1
1
1
0.411927
0.365378
0.346029
0.336215
0.336488
0.33833
0.342532
0.342532
0.33833
0.336488
0.336215
0.346029
0.365378
0.411927
1
1
1
1
1
1
1
0.00478379
1e-10
1e-10
1e-10
1e-10
1e-10
1e-10
1e-10
1e-10
1e-10
1e-10
4.681e-05
0.301863
1
1
1
1
1
1
0.907632
0.374516
0.336398
0.331009
0.327597
0.327869
0.328558
0.328558
0.327869
0.327597
0.331009
0.336398
0.374516
0.907632
1
1
1
1
1
1
0.301863
4.681e-05
1e-10
1e-10
1e-10
1e-10
1e-10
1e-10
1e-10
1e-10
1e-10
1e-10
1e-10
8.98353e-05
0.602749
1
1
1
1
1
1
0.685101
0.348155
0.326235
0.321498
0.319445
0.314085
0.314085
0.319445
0.321498
0.326235
0.348155
0.685101
1
1
1
1
1
1
0.602749
8.98353e-05
1e-10
1e-10
1e-10
1e-10
1e-10
1e-10
1e-10
1e-10
1e-10
1e-10
1e-10
1e-10
1e-10
0.00831504
0.883347
1
1
1
1
1
1
0.541637
0.331597
0.317741
0.307484
0.306061
0.306061
0.307484
0.317741
0.331597
0.541637
1
1
1
1
1
1
0.883347
0.00831504
1e-10
1e-10
1e-10
1e-10
1e-10
1e-10
1e-10
1e-10
1e-10
1e-10
1e-10
1e-10
1e-10
1e-10
0.000175809
0.0692169
1
1
1
1
1
1
1
0.423782
0.317605
0.303591
0.300489
0.300489
0.303591
0.317605
0.423782
1
1
1
1
1
1
1
0.0692169
0.000175809
1e-10
1e-10
1e-10
1e-10
1e-10
1e-10
1e-10
1e-10
1e-10
1e-10
1e-10
1e-10
1e-10
1e-10
1e-10
0.00109597
0.17069
1
1
1
1
1
1
1
0.320178
0.313512
0.297836
0.297836
0.313512
0.320178
1
1
1
1
1
1
1
0.17069
0.00109597
1e-10
1e-10
1e-10
1e-10
1e-10
1e-10
1e-10
1e-10
1e-10
1e-10
1e-10
1e-10
1e-10
1e-10
1e-10
1e-10
1e-10
0.00110471
0.234539
1
1
1
1
1
1
1
0.254779
0.310095
0.310095
0.254779
1
1
1
1
1
1
1
0.234539
0.00110471
1e-10
1e-10
1e-10
1e-10
1e-10
1e-10
1e-10
1e-10
1e-10
1e-10
1e-10
1e-10
1e-10
1e-10
1e-10
1e-10
1e-10
1e-10
1e-10
0.000935044
0.214079
1
1
1
1
1
1
0.986801
0.259993
0.259993
0.986801
1
1
1
1
1
1
0.214079
0.000935044
1e-10
1e-10
1e-10
1e-10
1e-10
1e-10
1e-10
1e-10
1e-10
1e-10
1e-10
1e-10
1e-10
1e-10
1e-10
1e-10
1e-10
1e-10
1e-10
1e-10
1e-10
0.00116428
0.112279
1
1
1
1
1
1
0.375486
0.375486
1
1
1
1
1
1
0.112279
0.00116428
1e-10
1e-10
1e-10
1e-10
1e-10
1e-10
1e-10
1e-10
1e-10
1e-10
1e-10
1e-10
1e-10
1e-10
1e-10
1e-10
1e-10
1e-10
1e-10
1e-10
1e-10
1e-10
1e-10
0.000668558
0.0192329
0.882729
1
1
1
1
1
1
1
1
1
1
0.882729
0.0192329
0.000668558
1e-10
1e-10
1e-10
1e-10
1e-10
1e-10
1e-10
1e-10
1e-10
1e-10
1e-10
1e-10
1e-10
1e-10
1e-10
1e-10
1e-10
1e-10
1e-10
1e-10
1e-10
1e-10
1e-10
1e-10
1e-10
1e-10
0.000113573
0.352723
1
1
1
1
1
1
1
1
0.352723
0.000113573
1e-10
1e-10
1e-10
1e-10
1e-10
1e-10
1e-10
1e-10
1e-10
1e-10
1e-10
1e-10
1e-10
1e-10

SCALARS Rho1 float
LOOKUP_TABLE default
1
1
1
1
1
1
1
1
1
1
0.0495277
0.0295114
0.0182734
0.0131262
0.00869978
0.00374962
0.00109134
0.000264323
5.6267e-05
8.96478e-06
8.96478e-06
5.6267e-05
0.000264323
0.00109134
0.00374962
0.00869978
0.0131262
0.0182734
0.0295114
0.0495277
1
1
1
1
1
1
1
1
1
1
1
1
1
1
1
1
1
1
1
1
0.0574851
0.030089
0.0227865
0.0155595
0.00792358
0.00276164
0.000831088
0.000222086
7.26752e-05
1.96838e-05
1.96838e-05
7.26752e-05
0.000222086
0.000831088
0.00276164
0.00792358
0.0155595
0.0227865
0.030089
0.0574851
1
1
1
1
1
1
1
1
1
1
1
1
1
1
1
1
1
1
1
1
0.209874
0.0555922
0.0278545
0.0214626
0.01146
0.0045186
0.00141578
0.000442571
0.000201376
0.000109259
0.000109259
0.000201376
0.000442571
0.00141578
0.0045186
0.01146
0.0214626
0.0278545
0.0555922
0.209874
1
1
1
1
1
1
1
1
1
1
1
1
1
1
1
1
1
1
1
1
1
0.0971987
0.056815
0.0316821
0.0178928
0.00788466
0.00304785
0.000979867
0.000535813
0.000373761
0.000373761
0.000535813
0.000979867
0.00304785
0.00788466
0.0178928
0.0316821
0.056815
0.0971987
1
1
1
1
1
1
1
1
1
1
1
1
1
1
1
1
1
1
1
1
1
1
0.252674
0.100319
0.0510895
0.0322168
0.0139856
0.00612711
0.00257763
0.00131129
0.0010095
0.0010095
0.00131129
0.00257763
0.00612711
0.0139856
0.0322168
0.0510895
0.100319
0.252674
1
1
1
1
1
1
1
1
1
1
1
1
1
1
1
1
1
1
1
1
1
1
1
0.160242
0.0918826
0.0531843
0.0273598
0.0124954
0.00599697
0.00314605
0.00206345
0.00206345
0.00314605
0.00599697
0.0124954
0.0273598
0.0531843
0.0918826
0.160242
1
1
1
1
1
1
1
1
1
1
1
1
1
1
1
1
1
1
1
1
1
1
1
1
0.338314
0.147229
0.0797762
0.0492118
0.0264061
0.0135661
0.00789423
0.00563794
0.00563794
0.00789423
0.0135661
0.0264061
0.0492118
0.0797762
0.147229
0.338314
1
1
1
1
1
1
1
1
1
1
1
1
1
1
1
1
1
1
1
1
1
1
1
1
1
0.234318
0.131088
0.0796271
0.0482168
0.0282447
0.0179007
0.0135046
0.0135046
0.0179007
0.0282447
0.0482168
0.0796271
0.131088
0.234318
1
1
1
1
1
1
1
1
1
1
1
1
1
1
1
1
1
1
1
1
1
1
1
1
1
1
0.510366
0.193687
0.11656
0.0822925
0.0529162
0.034112
0.0254297
0.0254297
0.034112
0.0529162
0.0822925
0.11656
0.193687
0.510366
1
1
1
1
1
1
1
1
1
1
1
1
1
1
1
1
1
1
1
1
1
1
1
1
1
1
1
0.286973
0.168119
0.11646
0.0830856
0.0562972
0.0409673
0.0409673
0.0562972
0.0830856
0.11646
0.168119
0.286973
1
1
1
1
1
1
1
1
1
1
1
1
1
1
1
1
1
1
1
1
1
1
1
1
1
1
1
1
0.65259
0.219137
0.153535
0.11832
0.0847103
0.0603881
0.0603881
0.0847103
0.11832
0.153535
0.219137
0.65259
1
1
1
1
1
1
1
1
1
1
1
1
1
1
1
1
1
1
1
1
1
1
1
1
1
1
1
1
1
0.287388
0.187759
0.152139
0.112514
0.0864428
0.0864428
0.112514
0.152139
0.187759
0.287388
1
1
1
1
1
1
1
1
1
1
1
1
1
1
1
1
1
1
1
1
1
1
1
1
0.70759
1
1
1
1
1
0.560343
0.225048
0.186513
0.155458
0.133514
0.133514
0.155458
0.186513
0.225048
0.560343
1
1
1
1
1
0.70759
1
1
1
1
1
1
1
1
1
1
1
1
1
1
1
1
1
1
0.179726
1
1
1
1
1
1
0.278069
0.221002
0.20791
0.197478
0.197478
0.20791
0.221002
0.278069
1
1
1
1
1
1
0.179726
1
1
1
1
1
1
1
1
1
1
1
1
1
1
1
1
1
1
0.0820715
0.319914
1
1
1
1
1
0.393338
0.259651
0.246097
0.246359
0.246359
0.246097
0.259651
0.393338
1
1
1
1
1
0.319914
0.0820715
1
1
1
1
1
1
1
1
1
1
1
1
1
1
1
1
1
1
0.0829081
0.0414612
1
1
1
1
1
1
0.296414
0.276893
0.279673
0.279673
0.276893
0.296414
1
1
1
1
1
1
0.0414612
0.0829081
1
1
1
1
1
1
1
1
1
1
1
1
1
1
1
1
1
1
0.107962
0.035462
0.190532
1
1
1
1
1
0.367132
0.304739
0.300694
0.300694
0.304739
0.367132
1
1
1
1
1
0.190532
0.035462
0.107962
1
1
1
1
1
1
1
1
1
1
1
1
1
1
1
1
1
1
0.100199
0.0476512
0.0555527
1
1
1
1
1
0.635505
0.335776
0.30659
0.30659
0.335776
0.635505
1
1
1
1
1
0.0555527
0.0476512
0.100199
1
1
1
1
1
1
1
1
1
1
1
1
1
1
1
1
1
1
0.0815528
0.0681999
0.0657556
0.196849
1
1
1
1
1
0.382539
0.345999
0.345999
0.382539
1
1
1
1
1
0.196849
0.0657556
0.0681999
0.0815528
1
1
1
1
1
1
1
1
1
1
1
1
1
1
1
1
1
1
0.0812656
0.0868899
0.0934766
0.110692
1
1
1
1
1
0.622717
0.393666
0.393666
0.622717
1
1
1
1
1
0.110692
0.0934766
0.0868899
0.0812656
1
1
1
1
1
1
1
1
1
1
1
1
1
1
1
1
1
1
0.100167
0.117651
0.130582
0.133315
0.200736
1
1
1
1
0.982772
0.662615
0.662615
0.982772
1
1
1
1
0.200736
0.133315
0.130582
0.117651
0.100167
1
1
1
1
1
1
1
1
1
1
1
1
1
1
1
1
1
1
0.129435
0.144651
0.157052
0.14074
0.111035
0.509417
1
1
1
1
1
1
1
1
1
1
0.509417
0.111035
0.14074
0.157052
0.144651
0.129435
1
1
1
1
1
1
1
1
1
1
1
1
1
1
1
1
1
1
0.154556
0.171035
0.159719
0.131647
0.10917
0.132285
1
1
1
1
1
1
1
1
1
1
0.132285
0.10917
0.131647
0.159719
0.171035
0.154556
1
1
1
1
1
1
1
1
1
1
1
1
1
1
1
1
1
1
0.180166
0.174553
0.149482
0.122657
0.111508
0.109243
0.230653
1
1
1
1
1
1
1
1
0.230653
0.109243
0.111508
0.122657
0.149482
0.174553
0.180166
1
1
1
1
1
1
1
1
1
1
1
1
1
1
1
1
1
1
0.181284
0.162243
0.135349
0.125906
0.11624
0.123157
0.164297
0.897609
1
1
1
1
1
1
0.897609
0.164297
0.123157
0.11624
0.125906
0.135349
0.162243
0.181284
1
1
1
1
1
1
1
1
1
1
1
1
1
1
1
1
1
1
0.163535
0.151948
0.137066
0.128981
0.134307
0.227422
1
1
1
1
1
1
1
1
1
1
0.227422
0.134307
0.128981
0.137066
0.151948
0.163535
1
1
1
1
1
1
1
1
1
1
1
1
1
1
1
1
0.0383041
1
0.185032
0.143642
0.142576
0.181183
0.719858
1
1
1
1
0.826173
0.249657
0.249657
0.826173
1
1
1
1
0.719858
0.181183
0.142576
0.143642
0.185032
1
0.0383041
1
1
1
1
1
1
1
1
1
1
1
1
1
1
0.00837643
1
0.234374
0.194368
0.416645
1
1
1
1
0.714536
0.171253
0.167012
0.175679
0.175679
0.167012
0.171253
0.714536
1
1
1
1
0.416645
0.194368
0.234374
1
0.00837643
1
1
1
1
1
1
1
1
1
1
1
1
1
1
0.0052663
1
1
1
1
1
1
0.75246
0.16038
0.134715
0.139738
0.140443
0.137413
0.137413
0.140443
0.139738
0.134715
0.16038
0.75246
1
1
1
1
1
1
0.0052663
1
1
1
1
1
1
1
1
1
1
1
1
1
1
1
1
1
1
1
0.863233
0.185162
0.136788
0.133038
0.132207
0.126036
0.115698
0.109225
0.109225
0.115698
0.126036
0.132207
0.133038
0.136788
0.185162
0.863233
1
1
1
1
1
1
1
1
1
1
1
1
1
1
1
1
1
1
1
1
1
1
1
0.317923
0.142983
0.142558
0.135239
0.13169
0.122262
0.10823
0.0959734
0.0889831
0.0889831
0.0959734
0.10823
0.122262
0.13169
0.135239
0.142558
0.142983
0.317923
1
1
1
1
1
1
1
1
1
1
1
1
1
1
1
1
1
1
1
0.648006
0.171579
0.137829
0.148242
0.149356
0.143077
0.136425
0.123502
0.106579
0.0914091
0.0813893
0.076399
0.076399
0.0813893
0.0914091
0.106579
0.123502
0.136425
0.143077
0.149356
0.148242
0.137829
0.171579
0.648006
1
1
1
1
1
1
1
1
1
1
1
1
1
1
1
0.53589
0.150288
0.131377
0.144739
0.153329
0.157483
0.145617
0.129043
0.10899
0.0916384
0.079467
0.0717767
0.068225
0.068225
0.0717767
0.079467
0.0916384
0.10899
0.129043
0.145617
0.157483
0.153329
0.144739
0.131377
0.150288
0.53589
1
1
1
1
1
1
1
1
1
1
1
1
1
1
1
0.139907
0.132819
0.151464
0.164785
0.157522
0.138391
0.115167
0.0955217
0.0813526
0.0712118
0.0632919
0.0593901
0.0593901
0.0632919
0.0712118
0.0813526
0.0955217
0.115167
0.138391
0.157522
0.164785
0.151464
0.132819
0.139907
1
1
1
1
1
1
1
1
1
1
1
1
1
1
1
1
0.136276
0.145538
0.162126
0.165772
0.14568
0.122876
0.102271
0.0866212
0.0713871
0.0607942
0.054326
0.0513366
0.0513366
0.054326
0.0607942
0.0713871
0.0866212
0.102271
0.122876
0.14568
0.165772
0.162126
0.145538
0.136276
1
1
1
1
1
1
1
1
1
1
1
1
1
1
1
1
0.14983
0.158447
0.163705
0.15088
0.127153
0.107469
0.0915001
0.0750186
0.0622848
0.0534411
0.0481068
0.0457052
0.0457052
0.0481068
0.0534411
0.0622848
0.0750186
0.0915001
0.107469
0.127153
0.15088
0.163705
0.158447
0.14983
1
1
1
1
1
1
1
1
1
1
1
1
1
1
1
1
0.161354
0.161414
0.153398
0.129999
0.110774
0.0951354
0.0788659
0.065627
0.0554033
0.0483225
0.0439149