# vtk DataFile Version 4.1
vtk output
ASCII
DATASET UNSTRUCTURED_GRID

POINTS	7401	float
0	0	0.0	
0	2.5	0.0	
0	5	0.0	
0	7.5	0.0	
0	10	0.0	
0	12.5	0.0	
0	15	0.0	
0	17.5	0.0	
0	20	0.0	
0	22.5	0.0	
0	25	0.0	
0	27.5	0.0	
0	30	0.0	
0	32.5	0.0	
0	35	0.0	
0	37.5	0.0	
0	40	0.0	
0	42.5	0.0	
0	45	0.0	
0	47.5	0.0	
0	50	0.0	
0	52.5	0.0	
0	55	0.0	
0	57.5	0.0	
0	60	0.0	
0	62.5	0.0	
0	65	0.0	
0	67.5	0.0	
0	70	0.0	
0	72.5	0.0	
0	75	0.0	
0	77.5	0.0	
0	80	0.0	
0	82.5	0.0	
0	85	0.0	
0	87.5	0.0	
0	90	0.0	
0	92.5	0.0	
0	95	0.0	
0	97.5	0.0	
0	100	0.0	
2.5	0	0.0	
2.5	2.5	0.0	
2.5	5	0.0	
2.5	7.5	0.0	
2.5	10	0.0	
2.5	12.5	0.0	
2.5	15	0.0	
2.5	17.5	0.0	
2.5	20	0.0	
2.5	22.5	0.0	
2.5	25	0.0	
2.5	27.5	0.0	
2.5	30	0.0	
2.5	32.5	0.0	
2.5	35	0.0	
2.5	37.5	0.0	
2.5	40	0.0	
2.5	42.5	0.0	
2.5	45	0.0	
2.5	47.5	0.0	
2.5	50	0.0	
2.5	52.5	0.0	
2.5	55	0.0	
2.5	57.5	0.0	
2.5	60	0.0	
2.5	62.5	0.0	
2.5	65	0.0	
2.5	67.5	0.0	
2.5	70	0.0	
2.5	72.5	0.0	
2.5	75	0.0	
2.5	77.5	0.0	
2.5	80	0.0	
2.5	82.5	0.0	
2.5	85	0.0	
2.5	87.5	0.0	
2.5	90	0.0	
2.5	92.5	0.0	
2.5	95	0.0	
2.5	97.5	0.0	
2.5	100	0.0	
5	0	0.0	
5	2.5	0.0	
5	5	0.0	
5	7.5	0.0	
5	10	0.0	
5	12.5	0.0	
5	15	0.0	
5	17.5	0.0	
5	20	0.0	
5	22.5	0.0	
5	25	0.0	
5	27.5	0.0	
5	30	0.0	
5	32.5	0.0	
5	35	0.0	
5	37.5	0.0	
5	40	0.0	
5	42.5	0.0	
5	45	0.0	
5	47.5	0.0	
5	50	0.0	
5	52.5	0.0	
5	55	0.0	
5	57.5	0.0	
5	60	0.0	
5	62.5	0.0	
5	65	0.0	
5	67.5	0.0	
5	70	0.0	
5	72.5	0.0	
5	75	0.0	
5	77.5	0.0	
5	80	0.0	
5	82.5	0.0	
5	85	0.0	
5	87.5	0.0	
5	90	0.0	
5	92.5	0.0	
5	95	0.0	
5	97.5	0.0	
5	100	0.0	
7.5	0	0.0	
7.5	2.5	0.0	
7.5	5	0.0	
7.5	7.5	0.0	
7.5	10	0.0	
7.5	12.5	0.0	
7.5	15	0.0	
7.5	17.5	0.0	
7.5	20	0.0	
7.5	22.5	0.0	
7.5	25	0.0	
7.5	27.5	0.0	
7.5	30	0.0	
7.5	32.5	0.0	
7.5	35	0.0	
7.5	37.5	0.0	
7.5	40	0.0	
7.5	42.5	0.0	
7.5	45	0.0	
7.5	47.5	0.0	
7.5	50	0.0	
7.5	52.5	0.0	
7.5	55	0.0	
7.5	57.5	0.0	
7.5	60	0.0	
7.5	62.5	0.0	
7.5	65	0.0	
7.5	67.5	0.0	
7.5	70	0.0	
7.5	72.5	0.0	
7.5	75	0.0	
7.5	77.5	0.0	
7.5	80	0.0	
7.5	82.5	0.0	
7.5	85	0.0	
7.5	87.5	0.0	
7.5	90	0.0	
7.5	92.5	0.0	
7.5	95	0.0	
7.5	97.5	0.0	
7.5	100	0.0	
10	0	0.0	
10	2.5	0.0	
10	5	0.0	
10	7.5	0.0	
10	10	0.0	
10	12.5	0.0	
10	15	0.0	
10	17.5	0.0	
10	20	0.0	
10	22.5	0.0	
10	25	0.0	
10	27.5	0.0	
10	30	0.0	
10	32.5	0.0	
10	35	0.0	
10	37.5	0.0	
10	40	0.0	
10	42.5	0.0	
10	45	0.0	
10	47.5	0.0	
10	50	0.0	
10	52.5	0.0	
10	55	0.0	
10	57.5	0.0	
10	60	0.0	
10	62.5	0.0	
10	65	0.0	
10	67.5	0.0	
10	70	0.0	
10	72.5	0.0	
10	75	0.0	
10	77.5	0.0	
10	80	0.0	
10	82.5	0.0	
10	85	0.0	
10	87.5	0.0	
10	90	0.0	
10	92.5	0.0	
10	95	0.0	
10	97.5	0.0	
10	100	0.0	
12.5	0	0.0	
12.5	2.5	0.0	
12.5	5	0.0	
12.5	7.5	0.0	
12.5	10	0.0	
12.5	12.5	0.0	
12.5	15	0.0	
12.5	17.5	0.0	
12.5	20	0.0	
12.5	22.5	0.0	
12.5	25	0.0	
12.5	27.5	0.0	
12.5	30	0.0	
12.5	32.5	0.0	
12.5	35	0.0	
12.5	37.5	0.0	
12.5	40	0.0	
12.5	42.5	0.0	
12.5	45	0.0	
12.5	47.5	0.0	
12.5	50	0.0	
12.5	52.5	0.0	
12.5	55	0.0	
12.5	57.5	0.0	
12.5	60	0.0	
12.5	62.5	0.0	
12.5	65	0.0	
12.5	67.5	0.0	
12.5	70	0.0	
12.5	72.5	0.0	
12.5	75	0.0	
12.5	77.5	0.0	
12.5	80	0.0	
12.5	82.5	0.0	
12.5	85	0.0	
12.5	87.5	0.0	
12.5	90	0.0	
12.5	92.5	0.0	
12.5	95	0.0	
12.5	97.5	0.0	
12.5	100	0.0	
15	0	0.0	
15	2.5	0.0	
15	5	0.0	
15	7.5	0.0	
15	10	0.0	
15	12.5	0.0	
15	15	0.0	
15	17.5	0.0	
15	20	0.0	
15	22.5	0.0	
15	25	0.0	
15	27.5	0.0	
15	30	0.0	
15	32.5	0.0	
15	35	0.0	
15	37.5	0.0	
15	40	0.0	
15	42.5	0.0	
15	45	0.0	
15	47.5	0.0	
15	50	0.0	
15	52.5	0.0	
15	55	0.0	
15	57.5	0.0	
15	60	0.0	
15	62.5	0.0	
15	65	0.0	
15	67.5	0.0	
15	70	0.0	
15	72.5	0.0	
15	75	0.0	
15	77.5	0.0	
15	80	0.0	
15	82.5	0.0	
15	85	0.0	
15	87.5	0.0	
15	90	0.0	
15	92.5	0.0	
15	95	0.0	
15	97.5	0.0	
15	100	0.0	
17.5	0	0.0	
17.5	2.5	0.0	
17.5	5	0.0	
17.5	7.5	0.0	
17.5	10	0.0	
17.5	12.5	0.0	
17.5	15	0.0	
17.5	17.5	0.0	
17.5	20	0.0	
17.5	22.5	0.0	
17.5	25	0.0	
17.5	27.5	0.0	
17.5	30	0.0	
17.5	32.5	0.0	
17.5	35	0.0	
17.5	37.5	0.0	
17.5	40	0.0	
17.5	42.5	0.0	
17.5	45	0.0	
17.5	47.5	0.0	
17.5	50	0.0	
17.5	52.5	0.0	
17.5	55	0.0	
17.5	57.5	0.0	
17.5	60	0.0	
17.5	62.5	0.0	
17.5	65	0.0	
17.5	67.5	0.0	
17.5	70	0.0	
17.5	72.5	0.0	
17.5	75	0.0	
17.5	77.5	0.0	
17.5	80	0.0	
17.5	82.5	0.0	
17.5	85	0.0	
17.5	87.5	0.0	
17.5	90	0.0	
17.5	92.5	0.0	
17.5	95	0.0	
17.5	97.5	0.0	
17.5	100	0.0	
20	0	0.0	
20	2.5	0.0	
20	5	0.0	
20	7.5	0.0	
20	10	0.0	
20	12.5	0.0	
20	15	0.0	
20	17.5	0.0	
20	20	0.0	
20	22.5	0.0	
20	25	0.0	
20	27.5	0.0	
20	30	0.0	
20	32.5	0.0	
20	35	0.0	
20	37.5	0.0	
20	40	0.0	
20	42.5	0.0	
20	45	0.0	
20	47.5	0.0	
20	50	0.0	
20	52.5	0.0	
20	55	0.0	
20	57.5	0.0	
20	60	0.0	
20	62.5	0.0	
20	65	0.0	
20	67.5	0.0	
20	70	0.0	
20	72.5	0.0	
20	75	0.0	
20	77.5	0.0	
20	80	0.0	
20	82.5	0.0	
20	85	0.0	
20	87.5	0.0	
20	90	0.0	
20	92.5	0.0	
20	95	0.0	
20	97.5	0.0	
20	100	0.0	
22.5	0	0.0	
22.5	2.5	0.0	
22.5	5	0.0	
22.5	7.5	0.0	
22.5	10	0.0	
22.5	12.5	0.0	
22.5	15	0.0	
22.5	17.5	0.0	
22.5	20	0.0	
22.5	22.5	0.0	
22.5	25	0.0	
22.5	27.5	0.0	
22.5	30	0.0	
22.5	32.5	0.0	
22.5	35	0.0	
22.5	37.5	0.0	
22.5	40	0.0	
22.5	42.5	0.0	
22.5	45	0.0	
22.5	47.5	0.0	
22.5	50	0.0	
22.5	52.5	0.0	
22.5	55	0.0	
22.5	57.5	0.0	
22.5	60	0.0	
22.5	62.5	0.0	
22.5	65	0.0	
22.5	67.5	0.0	
22.5	70	0.0	
22.5	72.5	0.0	
22.5	75	0.0	
22.5	77.5	0.0	
22.5	80	0.0	
22.5	82.5	0.0	
22.5	85	0.0	
22.5	87.5	0.0	
22.5	90	0.0	
22.5	92.5	0.0	
22.5	95	0.0	
22.5	97.5	0.0	
22.5	100	0.0	
25	0	0.0	
25	2.5	0.0	
25	5	0.0	
25	7.5	0.0	
25	10	0.0	
25	12.5	0.0	
25	15	0.0	
25	17.5	0.0	
25	20	0.0	
25	22.5	0.0	
25	25	0.0	
25	27.5	0.0	
25	30	0.0	
25	32.5	0.0	
25	35	0.0	
25	37.5	0.0	
25	40	0.0	
25	42.5	0.0	
25	45	0.0	
25	47.5	0.0	
25	50	0.0	
25	52.5	0.0	
25	55	0.0	
25	57.5	0.0	
25	60	0.0	
25	62.5	0.0	
25	65	0.0	
25	67.5	0.0	
25	70	0.0	
25	72.5	0.0	
25	75	0.0	
25	77.5	0.0	
25	80	0.0	
25	82.5	0.0	
25	85	0.0	
25	87.5	0.0	
25	90	0.0	
25	92.5	0.0	
25	95	0.0	
25	97.5	0.0	
25	100	0.0	
27.5	0	0.0	
27.5	2.5	0.0	
27.5	5	0.0	
27.5	7.5	0.0	
27.5	10	0.0	
27.5	12.5	0.0	
27.5	15	0.0	
27.5	17.5	0.0	
27.5	20	0.0	
27.5	22.5	0.0	
27.5	25	0.0	
27.5	27.5	0.0	
27.5	30	0.0	
27.5	32.5	0.0	
27.5	35	0.0	
27.5	37.5	0.0	
27.5	40	0.0	
27.5	42.5	0.0	
27.5	45	0.0	
27.5	47.5	0.0	
27.5	50	0.0	
27.5	52.5	0.0	
27.5	55	0.0	
27.5	57.5	0.0	
27.5	60	0.0	
27.5	62.5	0.0	
27.5	65	0.0	
27.5	67.5	0.0	
27.5	70	0.0	
27.5	72.5	0.0	
27.5	75	0.0	
27.5	77.5	0.0	
27.5	80	0.0	
27.5	82.5	0.0	
27.5	85	0.0	
27.5	87.5	0.0	
27.5	90	0.0	
27.5	92.5	0.0	
27.5	95	0.0	
27.5	97.5	0.0	
27.5	100	0.0	
30	0	0.0	
30	2.5	0.0	
30	5	0.0	
30	7.5	0.0	
30	10	0.0	
30	12.5	0.0	
30	15	0.0	
30	17.5	0.0	
30	20	0.0	
30	22.5	0.0	
30	25	0.0	
30	27.5	0.0	
30	30	0.0	
30	32.5	0.0	
30	35	0.0	
30	37.5	0.0	
30	40	0.0	
30	42.5	0.0	
30	45	0.0	
30	47.5	0.0	
30	50	0.0	
30	52.5	0.0	
30	55	0.0	
30	57.5	0.0	
30	60	0.0	
30	62.5	0.0	
30	65	0.0	
30	67.5	0.0	
30	70	0.0	
30	72.5	0.0	
30	75	0.0	
30	77.5	0.0	
30	80	0.0	
30	82.5	0.0	
30	85	0.0	
30	87.5	0.0	
30	90	0.0	
30	92.5	0.0	
30	95	0.0	
30	97.5	0.0	
30	100	0.0	
32.5	0	0.0	
32.5	2.5	0.0	
32.5	5	0.0	
32.5	7.5	0.0	
32.5	10	0.0	
32.5	12.5	0.0	
32.5	15	0.0	
32.5	17.5	0.0	
32.5	20	0.0	
32.5	22.5	0.0	
32.5	25	0.0	
32.5	27.5	0.0	
32.5	30	0.0	
32.5	32.5	0.0	
32.5	35	0.0	
32.5	37.5	0.0	
32.5	40	0.0	
32.5	42.5	0.0	
32.5	45	0.0	
32.5	47.5	0.0	
32.5	50	0.0	
32.5	52.5	0.0	
32.5	55	0.0	
32.5	57.5	0.0	
32.5	60	0.0	
32.5	62.5	0.0	
32.5	65	0.0	
32.5	67.5	0.0	
32.5	70	0.0	
32.5	72.5	0.0	
32.5	75	0.0	
32.5	77.5	0.0	
32.5	80	0.0	
32.5	82.5	0.0	
32.5	85	0.0	
32.5	87.5	0.0	
32.5	90	0.0	
32.5	92.5	0.0	
32.5	95	0.0	
32.5	97.5	0.0	
32.5	100	0.0	
35	0	0.0	
35	2.5	0.0	
35	5	0.0	
35	7.5	0.0	
35	10	0.0	
35	12.5	0.0	
35	15	0.0	
35	17.5	0.0	
35	20	0.0	
35	22.5	0.0	
35	25	0.0	
35	27.5	0.0	
35	30	0.0	
35	32.5	0.0	
35	35	0.0	
35	37.5	0.0	
35	40	0.0	
35	42.5	0.0	
35	45	0.0	
35	47.5	0.0	
35	50	0.0	
35	52.5	0.0	
35	55	0.0	
35	57.5	0.0	
35	60	0.0	
35	62.5	0.0	
35	65	0.0	
35	67.5	0.0	
35	70	0.0	
35	72.5	0.0	
35	75	0.0	
35	77.5	0.0	
35	80	0.0	
35	82.5	0.0	
35	85	0.0	
35	87.5	0.0	
35	90	0.0	
35	92.5	0.0	
35	95	0.0	
35	97.5	0.0	
35	100	0.0	
37.5	0	0.0	
37.5	2.5	0.0	
37.5	5	0.0	
37.5	7.5	0.0	
37.5	10	0.0	
37.5	12.5	0.0	
37.5	15	0.0	
37.5	17.5	0.0	
37.5	20	0.0	
37.5	22.5	0.0	
37.5	25	0.0	
37.5	27.5	0.0	
37.5	30	0.0	
37.5	32.5	0.0	
37.5	35	0.0	
37.5	37.5	0.0	
37.5	40	0.0	
37.5	42.5	0.0	
37.5	45	0.0	
37.5	47.5	0.0	
37.5	50	0.0	
37.5	52.5	0.0	
37.5	55	0.0	
37.5	57.5	0.0	
37.5	60	0.0	
37.5	62.5	0.0	
37.5	65	0.0	
37.5	67.5	0.0	
37.5	70	0.0	
37.5	72.5	0.0	
37.5	75	0.0	
37.5	77.5	0.0	
37.5	80	0.0	
37.5	82.5	0.0	
37.5	85	0.0	
37.5	87.5	0.0	
37.5	90	0.0	
37.5	92.5	0.0	
37.5	95	0.0	
37.5	97.5	0.0	
37.5	100	0.0	
40	0	0.0	
40	2.5	0.0	
40	5	0.0	
40	7.5	0.0	
40	10	0.0	
40	12.5	0.0	
40	15	0.0	
40	17.5	0.0	
40	20	0.0	
40	22.5	0.0	
40	25	0.0	
40	27.5	0.0	
40	30	0.0	
40	32.5	0.0	
40	35	0.0	
40	37.5	0.0	
40	40	0.0	
40	42.5	0.0	
40	45	0.0	
40	47.5	0.0	
40	50	0.0	
40	52.5	0.0	
40	55	0.0	
40	57.5	0.0	
40	60	0.0	
40	62.5	0.0	
40	65	0.0	
40	67.5	0.0	
40	70	0.0	
40	72.5	0.0	
40	75	0.0	
40	77.5	0.0	
40	80	0.0	
40	82.5	0.0	
40	85	0.0	
40	87.5	0.0	
40	90	0.0	
40	92.5	0.0	
40	95	0.0	
40	97.5	0.0	
40	100	0.0	
42.5	0	0.0	
42.5	2.5	0.0	
42.5	5	0.0	
42.5	7.5	0.0	
42.5	10	0.0	
42.5	12.5	0.0	
42.5	15	0.0	
42.5	17.5	0.0	
42.5	20	0.0	
42.5	22.5	0.0	
42.5	25	0.0	
42.5	27.5	0.0	
42.5	30	0.0	
42.5	32.5	0.0	
42.5	35	0.0	
42.5	37.5	0.0	
42.5	40	0.0	
42.5	42.5	0.0	
42.5	45	0.0	
42.5	47.5	0.0	
42.5	50	0.0	
42.5	52.5	0.0	
42.5	55	0.0	
42.5	57.5	0.0	
42.5	60	0.0	
42.5	62.5	0.0	
42.5	65	0.0	
42.5	67.5	0.0	
42.5	70	0.0	
42.5	72.5	0.0	
42.5	75	0.0	
42.5	77.5	0.0	
42.5	80	0.0	
42.5	82.5	0.0	
42.5	85	0.0	
42.5	87.5	0.0	
42.5	90	0.0	
42.5	92.5	0.0	
42.5	95	0.0	
42.5	97.5	0.0	
42.5	100	0.0	
45	0	0.0	
45	2.5	0.0	
45	5	0.0	
45	7.5	0.0	
45	10	0.0	
45	12.5	0.0	
45	15	0.0	
45	17.5	0.0	
45	20	0.0	
45	22.5	0.0	
45	25	0.0	
45	27.5	0.0	
45	30	0.0	
45	32.5	0.0	
45	35	0.0	
45	37.5	0.0	
45	40	0.0	
45	42.5	0.0	
45	45	0.0	
45	47.5	0.0	
45	50	0.0	
45	52.5	0.0	
45	55	0.0	
45	57.5	0.0	
45	60	0.0	
45	62.5	0.0	
45	65	0.0	
45	67.5	0.0	
45	70	0.0	
45	72.5	0.0	
45	75	0.0	
45	77.5	0.0	
45	80	0.0	
45	82.5	0.0	
45	85	0.0	
45	87.5	0.0	
45	90	0.0	
45	92.5	0.0	
45	95	0.0	
45	97.5	0.0	
45	100	0.0	
47.5	0	0.0	
47.5	2.5	0.0	
47.5	5	0.0	
47.5	7.5	0.0	
47.5	10	0.0	
[...]
CELL_DATA	2400
SCALARS Rho0 float
LOOKUP_TABLE default
1
1
1
1
1
1
1
1
1
1
0.594833
0.564468
0.54129
0.499922
0.4788
0.341309
0.358847
0.471007
0.491163
0.482991
0.482991
0.491163
0.471007
0.358847
0.341309
0.4788
0.499922
0.54129
0.564468
0.594833
1
1
1
1
1
1
1
1
1
1
1
1
1
1
1
1
1
1
1
1
0.591004
0.581785
0.555163
0.41765
0.410606
0.446122
0.36838
0.337123
0.328537
0.344884
0.344884
0.328537
0.337124
0.36838
0.446122
0.410606
0.41765
0.555163
0.581785
0.591004
1
1
1
1
1
1
1
1
1
1
1
1
1
1
1
1
1
1
1
1
0.697686
0.801076
0.712378
0.646803
0.605193
0.591378
0.576408
0.551818
0.51053
0.51158
0.51158
0.51053
0.551818
0.576408
0.591378
0.605193
0.646803
0.712378
0.801076
0.697686
1
1
1
1
1
1
1
1
1
1
1
1
1
1
1
1
1
1
1
1
1
0.84818
0.78942
0.712112
0.634933
0.616515
0.595072
0.577742
0.5578
0.540489
0.540489
0.5578
0.577742
0.595072
0.616515
0.634933
0.712112
0.78942
0.84818
1
1
1
1
1
1
1
1
1
1
1
1
1
1
1
1
1
1
1
1
1
1
0.951734
0.812048
0.62107
0.537918
0.630099
0.625489
0.599304
0.579696
0.577723
0.577723
0.579696
0.599304
0.625489
0.630099
0.537918
0.62107
0.812048
0.951734
1
1
1
1
1
1
1
1
1
1
1
1
1
1
1
1
1
1
1
1
1
1
1
0.890935
0.704799
0.627155
0.553227
0.637173
0.621173
0.619744
0.605907
0.605907
0.619744
0.621173
0.637173
0.553227
0.627155
0.704799
0.890935
1
1
1
1
1
1
1
1
1
1
1
1
1
1
1
1
1
1
1
1
1
1
1
1
0.988962
0.752529
0.7
0.639604
0.562177
0.671359
0.632388
0.637069
0.637069
0.632389
0.671359
0.562177
0.639604
0.7
0.752529
0.988962
1
1
1
1
1
1
1
1
1
1
1
1
1
1
1
1
1
1
1
1
1
1
1
1
1
0.791405
0.734937
0.7
0.642681
0.686449
0.687359
0.657396
0.657396
0.687359
0.686449
0.642681
0.7
0.734937
0.791405
1
1
1
1
1
1
1
1
1
1
1
1
1
1
1
1
1
1
1
1
1
1
1
1
1
1
0.937319
0.812076
0.777453
0.687363
0.819432
0.751686
0.692059
0.692059
0.751686
0.819432
0.687363
0.777453
0.812076
0.937319
1
1
1
1
1
1
1
1
1
1
1
1
1
1
1
1
1
1
1
1
1
1
1
1
1
1
1
0.85
0.82042
0.880648
0.864206
0.814775
0.776286
0.776286
0.814775
0.864206
0.880648
0.82042
0.85
1
1
1
1
1
1
1
1
1
1
1
1
1
1
1
1
1
1
1
1
1
1
1
1
1
1
1
1
1
0.823975
0.963767
0.899539
0.878635
0.859076
0.859076
0.878635
0.899539
0.963767
0.823975
1
1
1
1
1
1
1
1
1
1
1
1
1
1
1
1
1
1
1
1
1
1
1
1
1
0.803709
1
1
1
1
1
0.98019
0.947139
0.898932
0.923904
0.923904
0.898932
0.947139
0.98019
1
1
1
1
1
0.803709
1
1
1
1
1
1
1
1
1
1
1
1
1
1
1
1
1
1
1
1
0.598217
0.85
1
1
1
1
1
1
0.988052
0.965653
0.965653
0.988052
1
1
1
1
1
1
0.85
0.598217
1
1
1
1
1
1
1
1
1
1
1
1
1
1
1
1
1
1
1
1
0.578047
0.650633
1
1
1
1
1
1
1
0.945592
0.945592
1
1
1
1
1
1
1
0.650633
0.578047
1
1
1
1
1
1
1
1
1
1
1
1
1
1
1
1
1
1
1
1
0.614834
0.654717
0.785406
1
1
1
1
1
1
0.979985
0.979985
1
1
1
1
1
1
0.785406
0.654717
0.614834
1
1
1
1
1
1
1
1
1
1
1
1
1
1
1
1
1
1
1
1
0.665665
0.644555
0.594482
1
1
1
1
0.861651
0.843269
0.779452
0.779452
0.843269
0.861651
1
1
1
1
0.594482
0.644555
0.665665
1
1
1
1
1
1
1
1
1
1
1
1
1
1
1
1
1
1
1
1
0.859932
0.84837
0.860011
0.887117
1
1
1
1
0.85
0.85
0.85
0.85
1
1
1
1
0.887117
0.860011
0.84837
0.859932
1
1
1
1
1
1
1
1
1
1
1
1
1
1
1
1
1
1
1
1
0.690152
0.677342
0.875615
0.90769
1
1
1
1
0.869112
0.85
0.85
0.869112
1
1
1
1
0.90769
0.875615
0.677342
0.690152
1
1
1
1
1
1
1
1
1
1
1
1
1
1
1
1
1
1
0.705689
1
1
0.656907
0.827299
0.878938
0.98471
1
1
1
1
1
1
1
1
1
1
0.98471
0.878938
0.827299
0.656907
1
1
0.705689
1
1
1
1
1
1
1
1
1
1
1
1
1
1
1
1
0.354072
1
1
0.855559
0.828353
0.762753
0.811453
0.762642
1
1
1
1
1
1
1
1
0.762642
0.811453
0.762753
0.828353
0.855559
1
1
0.354072
1
1
1
1
1
1
1
1
1
1
1
1
1
1
1
1
0.591058
0.989154
1
0.857119
0.916554
0.880429
0.96301
0.85
0.85
1
1
1
1
1
1
0.85
0.85
0.96301
0.880429
0.916554
0.857119
1
0.989154
0.591058
1
1
1
1
1
1
1
1
1
1
1
1
1
1
1
1
0.537932
0.625431
1
0.922584
0.962846
0.993018
1
0.801785
0.85
1
1
1
1
1
1
0.85
0.801785
1
0.993018
0.962846
0.922584
1
0.625431
0.537932
1
1
1
1
1
1
1
1
1
1
1
1
1
1
1
1
0.710126
0.467664
1
0.989984
1
1
0.984715
1
1
1
0.887321
0.844085
0.844085
0.887321
1
1
1
0.984715
1
1
0.989984
1
0.467664
0.710126
1
1
1
1
1
1
1
1
1
1
1
1
1
1
1
1
0.745099
0.625323
0.910719
1
1
1
1
1
0.921371
1
1
1
1
1
1
0.921371
1
1
1
1
1
0.910719
0.625323
0.745099
1
1
1
1
1
1
1
1
1
1
1
1
1
1
1
1
0.702036
0.923338
1
1
1
1
0.85
0.835518
0.96201
0.976701
0.969448
0.976039
0.976039
0.969448
0.976701
0.96201
0.835518
0.85
1
1
1
1
0.923338
0.702036
1
1
1
1
1
1
1
1
1
1
1
1
1
1
1
1
1
1
1
1
1
0.838336
0.788783
0.808313
0.923933
0.91623
0.913935
0.925173
0.925173
0.913935
0.91623
0.923933
0.808313
0.788783
0.838336
1
1
1
1
1
1
1
1
1
1
1
1
1
1
1
1
1
1
1
1
1
1
0.97192
0.891675
0.971331
0.926962
0.821563
0.761686
0.846112
0.931984
0.917964
0.92533
0.924029
0.924029
0.92533
0.917964
0.931984
0.846112
0.761686
0.821563
0.926962
0.971331
0.891675
0.97192
1
1
1
1
1
1
1
1
1
1
1
1
1
1
1
1
0.697845
0.84854
0.936247
0.939275
0.962851
0.757585
0.71917
0.801834
0.751869
0.960466
0.966063
0.965153
0.980909
0.980909
0.965153
0.966063
0.960466
0.751869
0.801834
0.71917
0.757585
0.962851
0.939275
0.936247
0.84854
0.697845
1
1
1
1
1
1
1
1
1
1
1
1
1
1
0.917533
0.86866
0.963829
0.949826
0.923151
0.761401
0.7
0.758519
0.779363
0.751679
0.771111
0.778481
0.743994
0.743994
0.778481
0.771111
0.751679
0.779363
0.758519
0.7
0.761401
0.923151
0.949826
0.963829
0.86866
0.917533
1
1
1
1
1
1
1
1
1
1
1
1
1
1
1
0.879934
0.867663
0.993462
0.900192
0.7
0.700973
0.7
0.732525
0.741811
0.738173
0.741077
0.744608
0.744608
0.741077
0.738173
0.741811
0.732525
0.7
0.700973
0.7
0.900192
0.993462
0.867663
0.879934
1
1
1
1
1
1
1
1
1
1
1
1
1
1
1
1
0.877165
0.840456
0.876775
0.724077
0.7
0.7
0.706025
0.708418
0.730051
0.723769
0.72165
0.727019
0.727019
0.72165
0.723769
0.730051
0.708418
0.706025
0.7
0.7
0.724077
0.876775
0.840456
0.877165
1
1
1
1
1
1
1
1
1
1
1
1
1
1
1
1
0.851572
0.954887
0.854422
0.7
0.7
0.7
0.7
0.708123
0.716697
0.724036
0.725665
0.717898
0.717898
0.725665
0.724036
0.716697
0.708123
0.7
0.7
0.7
0.7
0.854422
0.954887
0.851572
1
1
1
1
1
1
1
1
1
1
1
1
1
1
1
1
0.829439
0.864315
0.724652
0.7
0.7
0.7
0.7
0.7
0.701619
0.701037
0.705979
0.710245
0.710245
0.705979
0.701037
0.701619
0.7
0.7
0.7
0.7
0.7
0.724652
0.864315
0.829439
1
1
1
1
1
1
1
1
1
1
1
1
1
1
1
1
0.85109
0.804293
0.7
0.7
0.7
0.7
0.7
0.7
0.7
0.7
0.7
0.7
0.7
0.7
0.7
0.7
0.7
0.7
0.7
0.7
0.7
0.7
0.804293
0.85109
1
1
1
1
1
1
1
1
1
1
1
1
1
1
1
1
0.876832
0.88438
0.7
0.7
0.7
0.7
0.7
0.7
0.7
0.7
0.7
0.684351
0.684351
0.7
0.7
0.7
0.7
0.7
0.7
0.7
0.7
0.7
0.88438
0.876832
1
1
1
1
1
1
1
1
1
1
1
1
1
1
1
1
0.878701
0.705755
0.7
0.7
0.7
0.7
0.7
0.7
0.7
0.7
0.692352
0.686598
0.686598
0.692352
0.7
0.7
0.7
0.7
0.7
0.7
0.7
0.7
0.705755
0.878701
1
1
1
1
1
1
1
1
0.837961
1
1
1
1
1
1
1
0.860677
0.681632
0.7
0.7
0.7
0.7
0.7
0.7
0.686148
0.665237
0.65206
0.645536
0.645536
0.65206
0.665237
0.686148
0.7
0.7
0.7
0.7
0.7
0.7
0.681632
0.860677
1
1
1
1
1
1
1
0.837961
0.324779
1
1
1
1
1
1
1
0.860158
0.691217
0.7
0.7
0.7
0.7
0.7
0.672968
0.650077
0.631752
0.617391
0.610394
0.610394
0.617391
0.631752
0.650077
0.672968
0.7
0.7
0.7
0.7
0.7
0.691217
0.860158
1
1
1
1
1
1
1
0.324779
0.000246013
1
1
1
1
1
1
1
0.822541
0.729379
0.7
0.7
0.7
0.693786
0.660364
0.636547
0.618123
0.601033
0.617137
0.625756
0.625756
0.617137
0.601033
0.618123
0.636547
0.660364
0.693786
0.7
0.7
0.7
0.729379
0.822541
1
1
1
1
1
1
1
0.000246013
1e-10
0.834837
1
1
1
1
1
1
0.835437
0.665761
0.613825
0.648448
0.656669
0.645878
0.625199
0.605987
0.606053
0.624992
0.638279
0.645484
0.645484
0.638279
0.624992
0.606053
0.605987
0.625199
0.645878
0.656669
0.648448
0.613825
0.665761
0.835437
1
1
1
1
1
1
0.834837
1e-10
1e-10
0.330812
1
1
1
1
1
1
0.87396
0.703412
0.648646
0.590931
0.591763
0.601423
0.591792
0.606776
0.632101
0.649512
0.65805
0.664168
0.664168
0.65805
0.649512
0.632101
0.606776
0.591792
0.601423
0.591763
0.590931
0.648646
0.703412
0.87396
1
1
1
1
1
1
0.330812
1e-10
1e-10
0.000522082
1
1
1
1
1
1
1
0.85
0.76503
0.737586
0.625906
0.639646
0.649203
0.654659
0.660369
0.640255
0.641378
0.646004
0.646004
0.641378
0.640255
0.660369
0.654659
0.649203
0.639646
0.625906
0.737586
0.76503
0.85
1
1
1
1
1
1
1
0.000522082
1e-10
1e-10
1e-10
0.781904
1
1
1
1
1
1
0.809317
0.61618
0.749473
0.775879
0.779941
0.727892
0.765195
0.795942
0.746473
0.749235
0.640873
0.640873
0.749235
0.746473
0.795942
0.765195
0.727892
0.779941
0.775879
0.749473
0.61618
0.809317
1
1
1
1
1
1
0.781904
1e-10
1e-10
1e-10
1e-10
0.178176
1
1
1
1
1
1
0.924703
0.814124
0.749138
0.702692
0.742551
0.772995
0.775548
0.766696
0.740571
0.726206
0.723541
0.723541
0.726206
0.740571
0.766696
0.775548
0.772995
0.742551
0.702692
0.749138
0.814124
0.924703
1
1
1
1
1
1
0.178176
1e-10
1e-10
1e-10
1e-10
1.09642e-10
0.853383
1
1
1
1
1
1
0.7949
0.601028
0.755665
0.7
0.712915
0.743025
0.758257
0.763898
0.771333
0.755088
0.755088
0.771333
0.763898
0.758257
0.743025
0.712915
0.7
0.755665
0.601028
0.7949
1
1
1
1
1
1
0.853383
1.09642e-10
1e-10
1e-10
1e-10
1e-10
1e-10
0.317347
1
1
1
1
1
1
0.88762
0.610513
0.629868
0.706807
0.742287
0.708252
0.720924
0.738452
0.749195
0.751763
0.751763
0.749195
0.738452
0.720924
0.708252
0.742287
0.706807
0.629868
0.610513
0.88762
1
1
1
1
1
1
0.317347
1e-10
1e-10
1e-10
1e-10
1e-10
1e-10
0.00728402
0.832454
1
1
1
1
1
1
0.613505
0.616955
0.766134
0.7
0.7
0.7
0.708228
0.71748
0.72507
0.72507
0.71748
0.708228
0.7
0.7
0.7
0.766134
0.616955
0.613505
1
1
1
1
1
1
0.832454
0.00728402
1e-10
1e-10
1e-10
1e-10
1e-10
1e-10
1e-10
0.302681
1
1
1
1
1
1
0.835918
0.650185
0.59846
0.7
0.7
0.7
0.7
0.7
0.7
0.7
0.7
0.7
0.7
0.7
0.7
0.59846
0.650185
0.835918
1
1
1
1
1
1
0.302681
1e-10
1e-10
1e-10
1e-10
1e-10
1e-10
1e-10
1e-10
1.64845e-05
0.864764
1
1
1
1
1
1
0.881372
0.624743
0.766281
0.7
0.7
0.7
0.7
0.7
0.7
0.7
0.7
0.7
0.7
0.766281
0.624743
0.881372
1
1
1
1
1
1
0.864764
1.64845e-05
1e-10
1e-10
1e-10
1e-10
1e-10
1e-10
1e-10
1e-10
1e-10
0.166433
1
1
1
1
1
1
1
0.662983
0.602281
0.7
0.7
0.7
0.7
0.7
0.7
0.7
0.7
0.7
0.7
0.602281
0.662983
1
1
1
1
1
1
1
0.166433
1e-10
1e-10
1e-10
1e-10
1e-10
1e-10
1e-10
1e-10
1e-10
1e-10
0.00401836
0.580979
1
1
1
1
1
1
0.85
0.610647
0.743003
0.7
0.7
0.7
0.7
0.7
0.7
0.7
0.7
0.743003
0.610647
0.85
1
1
1
1
1
1
0.580979
0.00401836
1e-10
1e-10
1e-10
1e-10
1e-10
1e-10
1e-10
1e-10
1e-10
1e-10
1e-10
0.0407381
0.925101
1
1
1
1
1
1
0.955192
0.815164
0.7
0.7
0.7
0.7
0.7
0.7
0.7
0.7
0.815164
0.955192
1
1
1
1
1
1
0.925101
0.0407381
1e-10
1e-10
1e-10
1e-10
1e-10
1e-10
1e-10
1e-10
1e-10
1e-10
1e-10
1e-10
1e-10
0.0578437
0.842128
1
1
1
1
1
1
0.91717
0.708067
0.7
0.7
0.7
0.7
0.7
0.7
0.708067
0.91717
1
1
1
1
1
1
0.842128
0.0578437
1e-10
1e-10
1e-10
1e-10
1e-10
1e-10
1e-10
1e-10
1e-10
1e-10
1e-10
1e-10
1e-10
1e-10
5.4864e-08
0.183374
1
1
1
1
1
1
1
0.831652
0.730751
0.7
0.7
0.7
0.7
0.730751
0.831652
1
1
1
1
1
1
1
0.183374
5.4864e-08
1e-10
1e-10
1e-10
1e-10
1e-10
1e-10
1e-10
1e-10
1e-10
1e-10
1e-10
1e-10
1e-10
1e-10
1e-10
0.0291559
0.382955
1
1
1
1
1
1
1
0.740576
0.74765
0.71378
0.71378
0.74765
0.740576
1
1
1
1
1
1
1
0.382955
0.0291559
1e-10
1e-10
1e-10
1e-10
1e-10
1e-10
1e-10
1e-10
1e-10
1e-10
1e-10
1e-10
1e-10
1e-10
1e-10
1e-10
1e-10
0.0620042
0.427159
1
1
1
1
1
1
1
0.700626
0.79175
0.79175
0.700626
1
1
1
1
1
1
1
0.427159
0.0620042
1e-10
1e-10
1e-10
1e-10
1e-10
1e-10
1e-10
1e-10
1e-10
1e-10
1e-10
1e-10
1e-10
1e-10
1e-10
1e-10
1e-10
1e-10
1e-10
0.0591293
0.41681
1
1
1
1
1
1
1
0.763553
0.763553
1
1
1
1
1
1
1
0.41681
0.0591293
1e-10
1e-10
1e-10
1e-10
1e-10
1e-10
1e-10
1e-10
1e-10
1e-10
1e-10
1e-10
1e-10
1e-10
1e-10
1e-10
1e-10
1e-10
1e-10
1e-10
1e-10
0.058992
0.284375
0.931488
1
1
1
1
1
0.708535
0.708535
1
1
1
1
1
0.931488
0.284375
0.058992
1e-10
1e-10
1e-10
1e-10
1e-10
1e-10
1e-10
1e-10
1e-10
1e-10
1e-10
1e-10
1e-10
1e-10
1e-10
1e-10
1e-10
1e-10
1e-10
1e-10
1e-10
1e-10
1e-10
9.02926e-06
0.0791124
0.73915
1
1
1
1
1
1
1
1
1
1
0.73915
0.0791124
9.02926e-06
1e-10
1e-10
1e-10
1e-10
1e-10
1e-10
1e-10
1e-10
1e-10
1e-10
1e-10
1e-10
1e-10
1e-10
1e-10
1e-10
1e-10
1e-10
1e-10
1e-10
1e-10
1e-10
1e-10
1e-10
1e-10
1e-10
0.0495038
0.544598
0.985195
1
1
1
1
1
1
0.985195
0.544598
0.0495038
1e-10
1e-10
1e-10
1e-10
1e-10
1e-10
1e-10
1e-10
1e-10
1e-10
1e-10
1e-10
1e-10
1e-10

SCALARS Rho1 float
LOOKUP_TABLE default
1
1
1
1
1
1
1
1
1
1
0.0702189
0.0199434
6.88215e-05
0.000146563
2.51318e-05
0.000239464
0.000222064
0.000133264
0.000112171
1.6585e-05
1.6585e-05
0.000112171
0.000133264
0.000222064
0.000239464
2.51318e-05
0.000146563
6.88215e-05
0.0199434
0.0702189
1
1
1
1
1
1
1
1
1
1
1
1
1
1
1
1
1
1
1
1
0.231259
0.000792786
1.19109e-05
0.138118
0.0170845
9.43281e-08
5.06466e-07
0.000475388
6.0903e-05
2.50031e-07
2.50031e-07
6.0903e-05
0.000475388
5.06466e-07
9.43281e-08
0.0170845
0.138118
1.19109e-05
0.000792786
0.231259
1
1
1
1
1
1
1
1
1
1
1
1
1
1
1
1
1
1
1
1
0.639611
0.00411768
0.000478152
0.0011121
0.000358886
0.000252472
8.52186e-07
3.81893e-06
4.56345e-07
0.000138645
0.000138645
4.56345e-07
3.81893e-06
8.52185e-07
0.000252472
0.000358886
0.0011121
0.000478152
0.00411768
0.639611
1
1
1
1
1
1
1
1
1
1
1
1
1
1
1
1
1
1
1
1
1
0.0019501
0.00186145
0.00130576
0.00304357
8.17211e-05
4.94985e-05
1.50179e-05
1.25647e-07
7.64356e-08
7.64356e-08
1.25647e-07
1.50179e-05
4.94985e-05
8.17211e-05
0.00304357
0.00130576
0.00186145
0.0019501
1
1
1
1
1
1
1
1
1
1
1
1
1
1
1
1
1
1
1
1
1
1
0.322721
0.0973954
0.0031706
0.0261536
0.0172303
0.000104484
3.54778e-05
6.80324e-06
1.18061e-08
1.18061e-08
6.80324e-06
3.54778e-05
0.000104484
0.0172303
0.0261536
0.0031706
0.0973954
0.322721
1
1
1
1
1
1
1
1
1
1
1
1
1
1
1
1
1
1
1
1
1
1
1
0.055383
0.00107844
4.79449e-05
0.00223868
0.0219959
0.000285295
2.84224e-05
8.12281e-06
8.12281e-06
2.84224e-05
0.000285295
0.0219959
0.00223868
4.79449e-05
0.00107844
0.055383
1
1
1
1
1
1
1
1
1
1
1
1
1
1
1
1
1
1
1
1
1
1
1
1
0.701655
0.0120596
0.00108272
0.000113839
0.000377922
0.00120085
0.000430809
0.000330983
0.000330983
0.000430809
0.00120085
0.000377922
0.000113839
0.00108272
0.0120596
0.701655
1
1
1
1
1
1
1
1
1
1
1
1
1
1
1
1
1
1
1
1
1
1
1
1
1
0.215065
0.0384803
0.001309
0.000634797
0.0859615
0.000398516
0.00265817
0.00265817
0.000398516
0.0859615
0.000634797
0.001309
0.0384803
0.215065
1
1
1
1
1
1
1
1
1
1
1
1
1
1
1
1
1
1
1
1
1
1
1
1
1
1
0.937319
0.0247999
0.000347998
0.00135643
1.71815e-05
0.000344306
0.0013951
0.0013951
0.000344306
1.71815e-05
0.00135643
0.000347998
0.0247999
0.937319
1
1
1
1
1
1
1
1
1
1
1
1
1
1
1
1
1
1
1
1
1
1
1
1
1
1
1
0.40277
0.00677408
0.0332456
0.0018981
2.85227e-05
1.03427e-05
1.03427e-05
2.85227e-05
0.0018981
0.0332456
0.00677408
0.40277
1
1
1
1
1
1
1
1
1
1
1
1
1
1
1
1
1
1
1
1
1
1
1
1
1
1
1
1
1
0.101604
0.00755128
0.010242
0.000208551
8.12442e-07
8.12442e-07
0.000208551
0.010242
0.00755128
0.101604
1
1
1
1
1
1
1
1
1
1
1
1
1
1
1
1
1
1
1
1
1
1
1
1
1
0.656423
1
1
1
1
0.904092
0.069033
0.0335125
0.0413988
0.000106784
0.000106784
0.0413988
0.0335125
0.069033
0.904092
1
1
1
1
0.656423
1
1
1
1
1
1
1
1
1
1
1
1
1
1
1
1
1
1
1
1
0.0443717
0.511262
1
1
1
1
0.244963
0.0240688
0.00431131
0.00995681
0.00995681
0.00431131
0.0240688
0.244963
1
1
1
1
0.511262
0.0443717
1
1
1
1
1
1
1
1
1
1
1
1
1
1
1
1
1
1
1
1
0.146126
0.000480218
1
1
1
1
0.736885
0.198149
0.0903972
0.273234
0.273234
0.0903972
0.198149
0.736885
1
1
1
1
0.000480218
0.146126
1
1
1
1
1
1
1
1
1
1
1
1
1
1
1
1
1
1
1
1
0.110244
0.00588197
0.0509314
1
1
1
1
0.582972
0.241533
0.335611
0.335611
0.241533
0.582972
1
1
1
1
0.0509314
0.00588197
0.110244
1
1
1
1
1
1
1
1
1
1
1
1
1
1
1
1
1
1
1
1
0.0864915
0.0760852
0.00023416
0.372271
1
1
1
0.742538
0.421634
0.424188
0.424188
0.421634
0.742538
1
1
1
0.372271
0.00023416
0.0760852
0.0864915
1
1
1
1
1
1
1
1
1
1
1
1
1
1
1
1
1
1
1
1
0.022213
0.0283855
0.0789496
0.0117905
1
1
1
1
0.508422
0.420879
0.420879
0.508422
1
1
1
1
0.0117905
0.0789496
0.0283855
0.022213
1
1
1
1
1
1
1
1
1
1
1
1
1
1
1
1
1
1
1
1
0.351095
0.0145133
0.0415769
0.0273037
0.308039
1
1
1
0.825635
0.670802
0.670802
0.825635
1
1
1
0.308039
0.0273037
0.0415769
0.0145133
0.351095
1
1
1
1
1
1
1
1
1
1
1
1
1
1
1
1
1
1
0.705689
1
0.283409
0.0645158
0.195505
0.0910535
0.000952581
1
1
1
1
1
1
1
1
1
1
0.000952581
0.0910535
0.195505
0.0645158
0.283409
1
0.705689
1
1
1
1
1
1
1
1
1
1
1
1
1
1
1
1
0.0169017
1
1
0.115182
0.115637
0.0582782
0.0323368
0.483118
1
1
1
1
1
1
1
1
0.483118
0.0323368
0.0582782
0.115637
0.115182
1
1
0.0169017
1
1
1
1
1
1
1
1
1
1
1
1
1
1
1
1
0.00682748
0.989154
1
0.47117
0.00858141
0.0391889
0.0400921
0.113433
0.563922
1
1
1
1
1
1
0.563922
0.113433
0.0400921
0.0391889
0.00858141
0.47117
1
0.989154
0.00682748
1
1
1
1
1
1
1
1
1
1
1
1
1
1
1
1
0.381723
0.0940259
1
0.433591
0.00257629
0.00142709
0.0421325
0.549706
0.755726
1
1
1
1
1
1
0.755726
0.549706
0.0421325
0.00142709
0.00257629
0.433591
1
0.0940258
0.381723
1
1
1
1
1
1
1
1
1
1
1
1
1
1
1
1
0.00459174
0.034309
1
0.546112
0.0899712
0.18797
0.709682
1
1
1
0.887321
0.844085
0.844085
0.887321
1
1
1
0.709682
0.18797
0.0899712
0.546112
1
0.034309
0.00459174
1
1
1
1
1
1
1
1
1
1
1
1
1
1
1
1
0.0208252
0.214024
0.130802
1
0.705467
1
1
1
0.657286
0.584409
0.690322
0.731161
0.731161
0.690322
0.584409
0.657286
1
1
1
0.705467
1
0.130802
0.214024
0.0208252
1
1
1
1
1
1
1
1
1
1
1
1
1
1
1
1
0.165233
0.240168
1
1
1
1
0.414593
0.0963492
0.616629
0.494564
0.614599
0.629456
0.629456
0.614599
0.494564
0.616629
0.0963492
0.414593
1
1
1
1
0.240168
0.165233
1
1
1
1
1
1
1
1
1
1
1
1
1
1
1
1
1
1
1
1
0.533393
0.0883664
0.368053
0.26116
0.566311
0.58683
0.623935
0.643562
0.643562
0.623935
0.58683
0.566311
0.26116
0.368053
0.0883664
0.533393
1
1
1
1
1
1
1
1
1
1
1
1
1
1
1
1
1
1
1
1
1
0.216344
0.00162616
0.000239621
0.0629284
0.209487
0.414921
0.163378
0.476358
0.522113
0.515868
0.499572
0.499572
0.515868
0.522113
0.476358
0.163378
0.414921
0.209487
0.0629284
0.000239621
0.00162616
0.216344
1
1
1
1
1
1
1
1
1
1
1
1
1
1
1
1
0.62018
0.354828
0.00531796
0.000532648
0.00319085
0.297628
0.36227
0.335269
0.493163
0.337092
0.264774
0.196785
0.0894562
0.0894562
0.196785
0.264774
0.337092
0.493163
0.335269
0.36227
0.297628
0.00319085
0.000532648
0.00531796
0.354828
0.62018
1
1
1
1
1
1
1
1
1
1
1
1
1
1
0.195598
0.0220589
0.0318338
0.0813197
0.212046
0.288693
0.412512
0.340266
0.325237
0.463065
0.301756
0.1981
0.278765
0.278765
0.1981
0.301756
0.463065
0.325237
0.340266
0.412512
0.288693
0.212046
0.0813197
0.0318338
0.0220589
0.195598
1
1
1
1
1
1
1
1
1
1
1
1
1
1
0.870037
0.0108376
0.467444
0.0835779
0.492512
0.383583
0.441066
0.445982
0.440025
0.421346
0.400513
0.322535
0.252584
0.252584
0.322535
0.400513
0.421346
0.440025
0.445982
0.441066
0.383583
0.492512
0.0835779
0.467444
0.0108376
0.870037
1
1
1
1
1
1
1
1
1
1
1
1
1
1
1
0.283174
0.669626
0.673177
0.416855
0.37098
0.43285
0.449728
0.44555
0.380623
0.390467
0.375473
0.334976
0.334976
0.375473
0.390467
0.380623
0.44555
0.449728
0.43285
0.37098
0.416855
0.673177
0.669626
0.283174
1
1
1
1
1
1
1
1
1
1
1
1
1
1
1
1
0.61146
0.0514329
0.588093
0.416132
0.44811
0.427219
0.44037
0.404215
0.332622
0.304408
0.31662
0.378711
0.378711
0.31662
0.304408
0.332622
0.404215
0.44037
0.427219
0.44811
0.416132
0.588093
0.0514329
0.61146
1
1
1
1
1
1
1
1
1
1
1
1
1
1
1
1
0.601218
0.474563
0.203362
0.340519
0.440873
0.436503
0.402788
0.357934
0.320776
0.343364
0.367875
0.371277
0.371277
0.367875
0.343364
0.320776
0.357934
0.402788
0.436503
0.440873
0.340519
0.203362
0.474563
0.601218
1
1
1
1
1
1
1
1
1
1
1
1
1
1
1
1
0.427646
0.550098
0.350747
0.366605
0.376871
0.391956
0.328371
0.288659
0.292263
0.312476
0.333152
0.342866
0.342866
0.333152
0.312476
0.292263
0.288659
0.328371
0.391956
0.376871
0.366605
0.350747
0.550098
0.427646
1
1
1
1
1
1
1
1
1
1
1
1
1
1
1
1
0.393046
0.46178
0.354564
0.367767
0.278486
0.237392
0.241224
0.26324
0.276219
0.270144
0.254525
0.330621
0.330621
0.254525
0.270144
0.276219
0.26324
0.241224
0.237392
0.278486
0.367767
0.354564
0.46178
0.393046
1
1
1
1
1
1
1
1
1
1
1
1
1
1
1
1
0.445185
0.346827
0.293814
0.251738
0.184241
0.160904
0.195632
0.235309
0.234488
0.20967
0.226981
0.235317
0.235317
0.226981
0.20967
0.234488
0.235309
0.195632
0.160904
0.184241
0.251738
0.293814
0.346827
0.445185
1
1
1
1
1
1
1
1
0.837961
1
1
1
1
1
1
1
0.409355
0.351365
0.233509
0.156078
0.143005
0.15528
0.16889
0.167427
0.216062
0.308123
0.347365
0.352949
0.352949
0.347365
0.308123
0.216062
0.167427
0.16889
0.15528
0.143005
0.156078
0.233509
0.351365
0.409355
1
1
1
1
1
1
1
0.837961
0.324779
1
1
1
1
1
1
1