# vtk DataFile Version 4.1
vtk output
ASCII
DATASET UNSTRUCTURED_GRID

POINTS	56171	float
0	0	0	
2.5	0	0	
5	0	0	
7.5	0	0	
10	0	0	
12.5	0	0	
15	0	0	
17.5	0	0	
20	0	0	
22.5	0	0	
25	0	0	
0	2.5	0	
2.5	2.5	0	
5	2.5	0	
7.5	2.5	0	
10	2.5	0	
12.5	2.5	0	
15	2.5	0	
17.5	2.5	0	
20	2.5	0	
22.5	2.5	0	
25	2.5	0	
0	5	0	
2.5	5	0	
5	5	0	
7.5	5	0	
10	5	0	
12.5	5	0	
15	5	0	
17.5	5	0	
20	5	0	
22.5	5	0	
25	5	0	
0	7.5	0	
2.5	7.5	0	
5	7.5	0	
7.5	7.5	0	
10	7.5	0	
12.5	7.5	0	
15	7.5	0	
17.5	7.5	0	
20	7.5	0	
22.5	7.5	0	
25	7.5	0	
0	10	0	
2.5	10	0	
5	10	0	
7.5	10	0	
10	10	0	
12.5	10	0	
15	10	0	
17.5	10	0	
20	10	0	
22.5	10	0	
25	10	0	
0	12.5	0	
2.5	12.5	0	
5	12.5	0	
7.5	12.5	0	
10	12.5	0	
12.5	12.5	0	
15	12.5	0	
17.5	12.5	0	
20	12.5	0	
22.5	12.5	0	
25	12.5	0	
0	15	0	
2.5	15	0	
5	15	0	
7.5	15	0	
10	15	0	
12.5	15	0	
15	15	0	
17.5	15	0	
20	15	0	
22.5	15	0	
25	15	0	
0	17.5	0	
2.5	17.5	0	
5	17.5	0	
7.5	17.5	0	
10	17.5	0	
12.5	17.5	0	
15	17.5	0	
17.5	17.5	0	
20	17.5	0	
22.5	17.5	0	
25	17.5	0	
0	20	0	
2.5	20	0	
5	20	0	
7.5	20	0	
10	20	0	
12.5	20	0	
15	20	0	
17.5	20	0	
20	20	0	
22.5	20	0	
25	20	0	
0	22.5	0	
2.5	22.5	0	
5	22.5	0	
7.5	22.5	0	
10	22.5	0	
12.5	22.5	0	
15	22.5	0	
17.5	22.5	0	
20	22.5	0	
22.5	22.5	0	
25	22.5	0	
0	25	0	
2.5	25	0	
5	25	0	
7.5	25	0	
10	25	0	
12.5	25	0	
15	25	0	
17.5	25	0	
20	25	0	
22.5	25	0	
25	25	0	
0	27.5	0	
2.5	27.5	0	
5	27.5	0	
7.5	27.5	0	
10	27.5	0	
12.5	27.5	0	
15	27.5	0	
17.5	27.5	0	
20	27.5	0	
22.5	27.5	0	
25	27.5	0	
0	30	0	
2.5	30	0	
5	30	0	
7.5	30	0	
10	30	0	
12.5	30	0	
15	30	0	
17.5	30	0	
20	30	0	
22.5	30	0	
25	30	0	
0	32.5	0	
2.5	32.5	0	
5	32.5	0	
7.5	32.5	0	
10	32.5	0	
12.5	32.5	0	
15	32.5	0	
17.5	32.5	0	
20	32.5	0	
22.5	32.5	0	
25	32.5	0	
0	35	0	
2.5	35	0	
5	35	0	
7.5	35	0	
10	35	0	
12.5	35	0	
15	35	0	
17.5	35	0	
20	35	0	
22.5	35	0	
25	35	0	
0	37.5	0	
2.5	37.5	0	
5	37.5	0	
7.5	37.5	0	
10	37.5	0	
12.5	37.5	0	
15	37.5	0	
17.5	37.5	0	
20	37.5	0	
22.5	37.5	0	
25	37.5	0	
0	40	0	
2.5	40	0	
5	40	0	
7.5	40	0	
10	40	0	
12.5	40	0	
15	40	0	
17.5	40	0	
20	40	0	
22.5	40	0	
25	40	0	
0	42.5	0	
2.5	42.5	0	
5	42.5	0	
7.5	42.5	0	
10	42.5	0	
12.5	42.5	0	
15	42.5	0	
17.5	42.5	0	
20	42.5	0	
22.5	42.5	0	
25	42.5	0	
0	45	0	
2.5	45	0	
5	45	0	
7.5	45	0	
10	45	0	
12.5	45	0	
15	45	0	
17.5	45	0	
20	45	0	
22.5	45	0	
25	45	0	
0	47.5	0	
2.5	47.5	0	
5	47.5	0	
7.5	47.5	0	
10	47.5	0	
12.5	47.5	0	
15	47.5	0	
17.5	47.5	0	
20	47.5	0	
22.5	47.5	0	
25	47.5	0	
0	50	0	
2.5	50	0	
5	50	0	
7.5	50	0	
10	50	0	
12.5	50	0	
15	50	0	
17.5	50	0	
20	50	0	
22.5	50	0	
25	50	0	
0	52.5	0	
2.5	52.5	0	
5	52.5	0	
7.5	52.5	0	
10	52.5	0	
12.5	52.5	0	
15	52.5	0	
17.5	52.5	0	
20	52.5	0	
22.5	52.5	0	
25	52.5	0	
0	55	0	
2.5	55	0	
5	55	0	
7.5	55	0	
10	55	0	
12.5	55	0	
15	55	0	
17.5	55	0	
20	55	0	
22.5	55	0	
25	55	0	
0	57.5	0	
2.5	57.5	0	
5	57.5	0	
7.5	57.5	0	
10	57.5	0	
12.5	57.5	0	
15	57.5	0	
17.5	57.5	0	
20	57.5	0	
22.5	57.5	0	
25	57.5	0	
0	60	0	
2.5	60	0	
5	60	0	
7.5	60	0	
10	60	0	
12.5	60	0	
15	60	0	
17.5	60	0	
20	60	0	
22.5	60	0	
25	60	0	
0	62.5	0	
2.5	62.5	0	
5	62.5	0	
7.5	62.5	0	
10	62.5	0	
12.5	62.5	0	
15	62.5	0	
17.5	62.5	0	
20	62.5	0	
22.5	62.5	0	
25	62.5	0	
0	0	2.5	
2.5	0	2.5	
5	0	2.5	
7.5	0	2.5	
10	0	2.5	
12.5	0	2.5	
15	0	2.5	
17.5	0	2.5	
20	0	2.5	
22.5	0	2.5	
25	0	2.5	
0	2.5	2.5	
2.5	2.5	2.5	
5	2.5	2.5	
7.5	2.5	2.5	
10	2.5	2.5	
12.5	2.5	2.5	
15	2.5	2.5	
17.5	2.5	2.5	
20	2.5	2.5	
22.5	2.5	2.5	
25	2.5	2.5	
0	5	2.5	
2.5	5	2.5	
5	5	2.5	
7.5	5	2.5	
10	5	2.5	
12.5	5	2.5	
15	5	2.5	
17.5	5	2.5	
20	5	2.5	
22.5	5	2.5	
25	5	2.5	
0	7.5	2.5	
2.5	7.5	2.5	
5	7.5	2.5	
7.5	7.5	2.5	
10	7.5	2.5	
12.5	7.5	2.5	
15	7.5	2.5	
17.5	7.5	2.5	
20	7.5	2.5	
22.5	7.5	2.5	
25	7.5	2.5	
0	10	2.5	
2.5	10	2.5	
5	10	2.5	
7.5	10	2.5	
10	10	2.5	
12.5	10	2.5	
15	10	2.5	
17.5	10	2.5	
20	10	2.5	
22.5	10	2.5	
25	10	2.5	
0	12.5	2.5	
2.5	12.5	2.5	
5	12.5	2.5	
7.5	12.5	2.5	
10	12.5	2.5	
12.5	12.5	2.5	
15	12.5	2.5	
17.5	12.5	2.5	
20	12.5	2.5	
22.5	12.5	2.5	
25	12.5	2.5	
0	15	2.5	
2.5	15	2.5	
5	15	2.5	
7.5	15	2.5	
10	15	2.5	
12.5	15	2.5	
15	15	2.5	
17.5	15	2.5	
20	15	2.5	
22.5	15	2.5	
25	15	2.5	
0	17.5	2.5	
2.5	17.5	2.5	
5	17.5	2.5	
7.5	17.5	2.5	
10	17.5	2.5	
12.5	17.5	2.5	
15	17.5	2.5	
17.5	17.5	2.5	
20	17.5	2.5	
22.5	17.5	2.5	
25	17.5	2.5	
0	20	2.5	
2.5	20	2.5	
5	20	2.5	
7.5	20	2.5	
10	20	2.5	
12.5	20	2.5	
15	20	2.5	
17.5	20	2.5	
20	20	2.5	
22.5	20	2.5	
25	20	2.5	
0	22.5	2.5	
2.5	22.5	2.5	
5	22.5	2.5	
7.5	22.5	2.5	
10	22.5	2.5	
12.5	22.5	2.5	
15	22.5	2.5	
17.5	22.5	2.5	
20	22.5	2.5	
22.5	22.5	2.5	
25	22.5	2.5	
0	25	2.5	
2.5	25	2.5	
5	25	2.5	
7.5	25	2.5	
10	25	2.5	
12.5	25	2.5	
15	25	2.5	
17.5	25	2.5	
20	25	2.5	
22.5	25	2.5	
25	25	2.5	
0	27.5	2.5	
2.5	27.5	2.5	
5	27.5	2.5	
7.5	27.5	2.5	
10	27.5	2.5	
12.5	27.5	2.5	
15	27.5	2.5	
17.5	27.5	2.5	
20	27.5	2.5	
22.5	27.5	2.5	
25	27.5	2.5	
0	30	2.5	
2.5	30	2.5	
5	30	2.5	
7.5	30	2.5	
10	30	2.5	
12.5	30	2.5	
15	30	2.5	
17.5	30	2.5	
20	30	2.5	
22.5	30	2.5	
25	30	2.5	
0	32.5	2.5	
2.5	32.5	2.5	
5	32.5	2.5	
7.5	32.5	2.5	
10	32.5	2.5	
12.5	32.5	2.5	
15	32.5	2.5	
17.5	32.5	2.5	
20	32.5	2.5	
22.5	32.5	2.5	
25	32.5	2.5	
0	35	2.5	
2.5	35	2.5	
5	35	2.5	
7.5	35	2.5	
10	35	2.5	
12.5	35	2.5	
15	35	2.5	
17.5	35	2.5	
20	35	2.5	
22.5	35	2.5	
25	35	2.5	
0	37.5	2.5	
2.5	37.5	2.5	
5	37.5	2.5	
7.5	37.5	2.5	
10	37.5	2.5	
12.5	37.5	2.5	
15	37.5	2.5	
17.5	37.5	2.5	
20	37.5	2.5	
22.5	37.5	2.5	
25	37.5	2.5	
0	40	2.5	
2.5	40	2.5	
5	40	2.5	
7.5	40	2.5	
10	40	2.5	
12.5	40	2.5	
15	40	2.5	
17.5	40	2.5	
20	40	2.5	
22.5	40	2.5	
25	40	2.5	
0	42.5	2.5	
2.5	42.5	2.5	
5	42.5	2.5	
7.5	42.5	2.5	
10	42.5	2.5	
12.5	42.5	2.5	
15	42.5	2.5	
17.5	42.5	2.5	
20	42.5	2.5	
22.5	42.5	2.5	
25	42.5	2.5	
0	45	2.5	
2.5	45	2.5	
5	45	2.5	
7.5	45	2.5	
10	45	2.5	
12.5	45	2.5	
15	45	2.5	
17.5	45	2.5	
20	45	2.5	
22.5	45	2.5	
25	45	2.5	
0	47.5	2.5	
2.5	47.5	2.5	
5	47.5	2.5	
7.5	47.5	2.5	
10	47.5	2.5	
12.5	47.5	2.5	
15	47.5	2.5	
17.5	47.5	2.5	
20	47.5	2.5	
22.5	47.5	2.5	
25	47.5	2.5	
0	50	2.5	
2.5	50	2.5	
5	50	2.5	
7.5	50	2.5	
10	50	2.5	
12.5	50	2.5	
15	50	2.5	
17.5	50	2.5	
20	50	2.5	
22.5	50	2.5	
25	50	2.5	
0	52.5	2.5	
2.5	52.5	2.5	
5	52.5	2.5	
7.5	52.5	2.5	
10	52.5	2.5	
12.5	52.5	2.5	
15	52.5	2.5	
17.5	52.5	2.5	
20	52.5	2.5	
22.5	52.5	2.5	
25	52.5	2.5	
0	55	2.5	
2.5	55	2.5	
5	55	2.5	
7.5	55	2.5	
10	55	2.5	
12.5	55	2.5	
15	55	2.5	
17.5	55	2.5	
20	55	2.5	
22.5	55	2.5	
25	55	2.5	
0	57.5	2.5	
2.5	57.5	2.5	
5	57.5	2.5	
7.5	57.5	2.5	
10	57.5	2.5	
12.5	57.5	2.5	
15	57.5	2.5	
17.5	57.5	2.5	
20	57.5	2.5	
22.5	57.5	2.5	
25	57.5	2.5	
0	60	2.5	
2.5	60	2.5	
5	60	2.5	
7.5	60	2.5	
10	60	2.5	
12.5	60	2.5	
15	60	2.5	
17.5	60	2.5	
20	60	2.5	
22.5	60	2.5	
25	60	2.5	
0	62.5	2.5	
2.5	62.5	2.5	
5	62.5	2.5	
7.5	62.5	2.5	
10	62.5	2.5	
12.5	62.5	2.5	
15	62.5	2.5	
17.5	62.5	2.5	
20	62.5	2.5	
22.5	62.5	2.5	
25	62.5	2.5	
0	0	5	
2.5	0	5	
5	0	5	
7.5	0	5	
10	0	5	
12.5	0	5	
15	0	5	
17.5	0	5	
20	0	5	
22.5	0	5	
25	0	5	
0	2.5	5	
2.5	2.5	5	
5	2.5	5	
7.5	2.5	5	
10	2.5	5	
12.5	2.5	5	
15	2.5	5	
17.5	2.5	5	
20	2.5	5	
22.5	2.5	5	
25	2.5	5	
0	5	5	
2.5	5	5	
5	5	5	
7.5	5	5	
10	5	5	
12.5	5	5	
15	5	5	
17.5	5	5	
20	5	5	
22.5	5	5	
25	5	5	
0	7.5	5	
2.5	7.5	5	
5	7.5	5	
7.5	7.5	5	
10	7.5	5	
12.5	7.5	5	
15	7.5	5	
17.5	7.5	5	
20	7.5	5	
22.5	7.5	5	
25	7.5	5	
0	10	5	
2.5	10	5	
5	10	5	
7.5	10	5	
10	10	5	
12.5	10	5	
15	10	5	
17.5	10	5	
20	10	5	
22.5	10	5	
25	10	5	
0	12.5	5	
2.5	12.5	5	
5	12.5	5	
7.5	12.5	5	
10	12.5	5	
12.5	12.5	5	
15	12.5	5	
17.5	12.5	5	
20	12.5	5	
22.5	12.5	5	
25	12.5	5	
0	15	5	
2.5	15	5	
5	15	5	
7.5	15	5	
10	15	5	
12.5	15	5	
15	15	5	
17.5	15	5	
20	15	5	
22.5	15	5	
25	15	5	
0	17.5	5	
2.5	17.5	5	
5	17.5	5	
7.5	17.5	5	
10	17.5	5	
12.5	17.5	5	
15	17.5	5	
17.5	17.5	5	
20	17.5	5	
22.5	17.5	5	
25	17.5	5	
0	20	5	
2.5	20	5	
5	20	5	
7.5	20	5	
10	20	5	
12.5	20	5	
15	20	5	
17.5	20	5	
20	20	5	
22.5	20	5	
25	20	5	
0	22.5	5	
2.5	22.5	5	
5	22.5	5	
7.5	22.5	5	
10	22.5	5	
12.5	22.5	5	
15	22.5	5	
17.5	22.5	5	
20	22.5	5	
22.5	22.5	5	
25	22.5	5	
0	25	5	
2.5	25	5	
5	25	5	
7.5	25	5	
10	25	5	
12.5	25	5	
15	25	5	
17.5	25	5	
20	25	5	
22.5	25	5	
25	25	5	
0	27.5	5	
2.5	27.5	5	
5	27.5	5	
7.5	27.5	5	
10	27.5	5	
12.5	27.5	5	
15	27.5	5	
17.5	27.5	5	
20	27.5	5	
22.5	27.5	5	
25	27.5	5	
0	30	5	
2.5	30	5	
5	30	5	
7.5	30	5	
10	30	5	
12.5	30	5	
15	30	5	
17.5	30	5	
20	30	5	
22.5	30	5	
25	30	5	
0	32.5	5	
2.5	32.5	5	
5	32.5	5	
7.5	32.5	5	
10	32.5	5	
12.5	32.5	5	
15	32.5	5	
17.5	32.5	5	
20	32.5	5	
22.5	32.5	5	
25	32.5	5	
0	35	5	
2.5	35	5	
5	35	5	
7.5	35	5	
10	35	5	
12.5	35	5	
15	35	5	
17.5	35	5	
20	35	5	
22.5	35	5	
25	35	5	
0	37.5	5	
2.5	37.5	5	
5	37.5	5	
7.5	37.5	5	
10	37.5	5	
12.5	37.5	5	
15	37.5	5	
17.5	37.5	5	
20	37.5	5	
22.5	37.5	5	
25	37.5	5	
0	40	5	
2.5	40	5	
5	40	5	
7.5	40	5	
10	40	5	
12.5	40	5	
15	40	5	
17.5	40	5	
20	40	5	
22.5	40	5	
25	40	5	
0	42.5	5	
2.5	42.5	5	
5	42.5	5	
7.5	42.5	5	
10	42.5	5	
12.5	42.5	5	
15	42.5	5	
17.5	42.5	5	
20	42.5	5	
22.5	42.5	5	
25	42.5	5	
0	45	5	
2.5	45	5	
5	45	5	
7.5	45	5	
10	45	5	
12.5	45	5	
15	45	5	
17.5	45	5	
20	45	5	
22.5	45	5	
25	45	5	
0	47.5	5	
2.5	47.5	5	
5	47.5	5	
7.5	47.5	5	
10	47.5	5	
12.5	47.5	5	
15	47.5	5	
17.5	47.5	5	
20	47.5	5	
22.5	47.5	5	
25	47.5	5	
0	50	5	
2.5	50	5	
5	50	5	
7.5	50	5	
10	50	5	
12.5	50	5	
15	50	5	
17.5	50	5	
20	50	5	
22.5	50	5	
25	50	5	
0	52.5	5	
2.5	52.5	5	
5	52.5	5	
7.5	52.5	5	
10	52.5	5	
12.5	52.5	5	
15	52.5	5	
17.5	52.5	5	
20	52.5	5	
22.5	52.5	5	
25	52.5	5	
0	55	5	
2.5	55	5	
5	55	5	
7.5	55	5	
10	55	5	
12.5	55	5	
15	55	5	
17.5	55	5	
20	55	5	
22.5	55	5	
25	55	5	
0	57.5	5	
2.5	57.5	5	
5	57.5	5	
7.5	57.5	5	
10	57.5	5	
12.5	57.5	5	
15	57.5	5	
17.5	57.5	5	
20	57.5	5	
22.5	57.5	5	
25	57.5	5	
0	60	5	
2.5	60	5	
5	60	5	
7.5	60	5	
10	60	5	
12.5	60	5	
15	60	5	
17.5	60	5	
20	60	5	
22.5	60	5	
25	60	5	
0	62.5	5	
2.5	62.5	5	
5	62.5	5	
7.5	62.5	5	
10	62.5	5	
12.5	62.5	5	
15	62.5	5	
17.5	62.5	5	
20	62.5	5	
22.5	62.5	5	
25	62.5	5	
0	0	7.5	
2.5	0	7.5	
5	0	7.5	
7.5	0	7.5	
10	0	7.5	
12.5	0	7.5	
15	0	7.5	
17.5	0	7.5	
20	0	7.5	
22.5	0	7.5	
25	0	7.5	
0	2.5	7.5	
2.5	2.5	7.5	
5	2.5	7.5	
7.5	2.5	7.5	
10	2.5	7.5	
12.5	2.5	7.5	
15	2.5	7.5	
17.5	2.5	7.5	
20	2.5	7.5	
22.5	2.5	7.5	
25	2.5	7.5	
0	5	7.5	
2.5	5	7.5	
5	5	7.5	
7.5	5	7.5	
10	5	7.5	
12.5	5	7.5	
15	5	7.5	
17.5	5	7.5	
20	5	7.5	
22.5	5	7.5	
25	5	7.5	
0	7.5	7.5	
2.5	7.5	7.5	
5	7.5	7.5	
7.5	7.5	7.5	
[...]
CELL_DATA	12500
SCALARS Rho0 float
LOOKUP_TABLE default
1
1
1
1
1
1
1
1
1
1
1
1
1
1
1
1
1
1
1
1
1
1
1
1
1
1
1
1
1
1
1
1
1
1
1e-10
1e-10
1e-10
1e-10
1e-10
1e-10
1e-10
1e-10
1e-10
1e-10
1e-10
1e-10
1e-10
1e-10
1e-10
1e-10
1e-10
1e-10
1e-10
1
1
1
0.546652
1e-10
1e-10
1e-10
1e-10
1e-10
1e-10
1e-10
1e-10
1e-10
1e-10
1e-10
1e-10
1e-10
1e-10
1e-10
1e-10
1e-10
1e-10
1e-10
1e-10
1
1
1
1
1
1
1
1
1e-10
1e-10
1e-10
1e-10
1e-10
1e-10
1e-10
1e-10
1e-10
1e-10
1e-10
1e-10
1e-10
1e-10
1e-10
1e-10
1e-10
1e-10
1
1
1
1
1e-10
1e-10
1e-10
1e-10
1e-10
1e-10
1e-10
1e-10
1e-10
1e-10
1e-10
1e-10
1e-10
1e-10
1e-10
1e-10
1e-10
1e-10
1e-10
1e-10
0.88732
0.758472
0.85
0.85
0.924347
0.721208
1e-10
1.05226e-09
1
1e-10
1e-10
1e-10
1e-10
1e-10
1e-10
1e-10
1e-10
1e-10
1e-10
1e-10
1e-10
1e-10
1e-10
1e-10
1e-10
1
1e-10
1e-10
1
1
1
1e-10
1e-10
1e-10
1e-10
1e-10
1e-10
1e-10
1e-10
1e-10
1e-10
1e-10
1e-10
1e-10
1e-10
1e-10
1e-10
1e-10
1e-10
1e-10
1
1
1
0.882313
0.221444
0.463238
0.220366
1e-10
1e-10
1e-10
1e-10
1e-10
1e-10
1e-10
1e-10
1e-10
1e-10
1e-10
1e-10
1e-10
1e-10
1e-10
1e-10
1e-10
1
1e-10
1e-10
1e-10
1e-10
0.964835
1
1
1
1
1e-10
1e-10
1e-10
1e-10
1e-10
1e-10
1e-10
1e-10
1e-10
1e-10
1e-10
1e-10
1e-10
1e-10
1e-10
1
1
1
1e-10
1e-10
1e-10
1e-10
0.117219
0.257023
1e-10
1e-10
1e-10
1e-10
1e-10
1e-10
1e-10
1e-10
1e-10
1e-10
1e-10
1e-10
1e-10
1e-10
1e-10
1
1e-10
1e-10
1e-10
1e-10
1e-10
1e-10
1e-10
1
1
1
1
1
1e-10
1e-10
1e-10
1e-10
1e-10
1e-10
1e-10
1e-10
1e-10
1e-10
1e-10
1e-10
1
1
1e-10
1e-10
1e-10
1e-10
1e-10
1e-10
1e-10
1e-10
1e-10
1e-10
1e-10
1e-10
1e-10
1e-10
1e-10
1e-10
1e-10
1e-10
1e-10
1e-10
1e-10
1e-10
1e-10
1e-10
1e-10
1e-10
1e-10
1e-10
1e-10
1e-10
1e-10
1e-10
1
1
1
1
1
1
1e-10
1e-10
1e-10
1e-10
1e-10
1e-10
1e-10
1e-10
0.912176
1
1
1e-10
1e-10
1e-10
1e-10
1e-10
1e-10
1e-10
1e-10
1e-10
1e-10
1e-10
1e-10
1e-10
1e-10
1e-10
1e-10
1e-10
1e-10
1e-10
1e-10
1e-10
1e-10
1e-10
1e-10
1e-10
1e-10
1e-10
1e-10
1e-10
1e-10
1e-10
1e-10
1e-10
1e-10
0.793426
1
1
1
1
1
1e-10
1e-10
1e-10
1e-10
1e-10
1e-10
1
1
1
1
1e-10
1e-10
1e-10
1e-10
1e-10
1e-10
1e-10
1e-10
1e-10
1e-10
1e-10
1e-10
1e-10
1e-10
1e-10
1e-10
1e-10
1e-10
1e-10
1e-10
1e-10
1e-10
1e-10
1e-10
1e-10
1e-10
1e-10
1e-10
1e-10
1e-10
1e-10
1e-10
1e-10
1e-10
1e-10
1e-10
1
1
1
1e-10
1
1
1
1e-10
1e-10
1
1
1
1
1e-10
1e-10
1e-10
1e-10
1e-10
1e-10
1e-10
1e-10
1e-10
1e-10
1e-10
1e-10
1e-10
1e-10
1e-10
1e-10
1e-10
1e-10
1e-10
1e-10
1e-10
1e-10
1e-10
1e-10
1e-10
1e-10
1e-10
1e-10
1e-10
1e-10
1e-10
1e-10
1e-10
1e-10
1e-10
1e-10
1e-10
1e-10
1
1
1
1
1
1e-10
1
1
1
1
1
1e-10
1e-10
1e-10
1e-10
1e-10
1e-10
1e-10
1e-10
1e-10
1e-10
1e-10
1e-10
1e-10
1e-10
1e-10
1e-10
1e-10
1e-10
1e-10
1e-10
1e-10
1e-10
1e-10
1e-10
1e-10
1e-10
1e-10
1e-10
1e-10
1e-10
1e-10
1e-10
1e-10
1e-10
1e-10
1e-10
1e-10
1e-10
1e-10
1e-10
1
1
1
1
1
1
1
1
1
1e-10
1e-10
1e-10
1e-10
1e-10
1e-10
1e-10
1e-10
1e-10
1e-10
1e-10
1e-10
1e-10
1e-10
1e-10
1e-10
1e-10
1e-10
1e-10
1e-10
1e-10
1e-10
1e-10
1e-10
1e-10
1e-10
1e-10
1e-10
1e-10
1e-10
1e-10
1e-10
1e-10
1e-10
1e-10
1e-10
1e-10
1e-10
1e-10
1e-10
1e-10
1e-10
1
1
1
1
1
1
1
1
1e-10
1e-10
1e-10
1e-10
1e-10
1e-10
1e-10
1e-10
1e-10
1e-10
1e-10
1e-10
1e-10
1e-10
1e-10
1e-10
1e-10
1e-10
1e-10
1e-10
1e-10
1e-10
1e-10
1e-10
1e-10
1e-10
1e-10
1e-10
1e-10
1e-10
1e-10
1e-10
1e-10
1e-10
1e-10
1e-10
1e-10
1e-10
1e-10
1e-10
1e-10
1e-10
1e-10
1
1
1
1
1
1
1e-10
1e-10
1e-10
1e-10
1e-10
1e-10
1e-10
1e-10
1e-10
1e-10
1e-10
1e-10
1e-10
1e-10
1e-10
1e-10
1e-10
1e-10
1e-10
1e-10
1e-10
1e-10
1e-10
1e-10
1e-10
1e-10
1e-10
1e-10
1e-10
1e-10
1e-10
1e-10
1e-10
1e-10
1e-10
1e-10
1e-10
1e-10
1e-10
1e-10
1e-10
1e-10
1e-10
1
1
1
1
1
1
1
1
1e-10
1e-10
1e-10
1e-10
1e-10
1e-10
1e-10
1e-10
1e-10
1e-10
1e-10
1e-10
1e-10
1e-10
1e-10
1e-10
1e-10
1e-10
1e-10
1e-10
1e-10
1e-10
1e-10
1e-10
1e-10
1e-10
1e-10
1e-10
1e-10
1e-10
1e-10
1e-10
1e-10
1e-10
1e-10
1e-10
1e-10
1e-10
1e-10
1e-10
1e-10
1
1
1
1
1
1
1
1
1
1
1e-10
1e-10
1e-10
1e-10
1e-10
1e-10
1e-10
1e-10
1e-10
1e-10
1e-10
1e-10
1e-10
1e-10
1e-10
1e-10
1e-10
1e-10
1e-10
1e-10
1e-10
1e-10
1e-10
1e-10
1e-10
1e-10
1e-10
1e-10
1e-10
1e-10
1e-10
1e-10
1e-10
1e-10
1e-10
1e-10
1e-10
1e-10
1e-10
1
1
1
1
1
1e-10
1e-10
1
1
1
1
1e-10
1e-10
1e-10
1e-10
1e-10
1e-10
1e-10
1e-10
1e-10
1e-10
1e-10
1e-10
1e-10
1e-10
1e-10
1e-10
1e-10
1e-10
1e-10
1e-10
1e-10
1e-10
1e-10
1e-10
1e-10
1e-10
1e-10
1e-10
1e-10
1e-10
1e-10
1e-10
1e-10
1e-10
1e-10
1e-10
1e-10
1e-10
1
1
1
1e-10
1
1e-10
1e-10
1e-10
1e-10
0.94622
1
1
1
1e-10
1e-10
1e-10
1e-10
1e-10
1e-10
1e-10
1e-10
1e-10
1e-10
1e-10
1e-10
1e-10
1e-10
1e-10
1e-10
1e-10
1e-10
1e-10
1e-10
1e-10
1e-10
1e-10
1e-10
1e-10
1e-10
1e-10
1e-10
1e-10
1e-10
1e-10
1e-10
1e-10
1e-10
1e-10
1e-10
1
1
1
1
1
1e-10
1e-10
1e-10
1e-10
1e-10
1e-10
1e-10
1
1
1
1e-10
1e-10
1e-10
1e-10
1e-10
1e-10
1e-10
1e-10
1e-10
1e-10
1e-10
1e-10
1e-10
1e-10
1e-10
1e-10
1e-10
1e-10
1e-10
1e-10
1e-10
1e-10
1e-10
1e-10
1e-10
1e-10
1e-10
1e-10
1e-10
1e-10
1e-10
1e-10
1e-10
1
1
1
1
1e-10
1e-10
1e-10
1e-10
1e-10
1e-10
1e-10
1e-10
1e-10
1e-10
1e-10
1
1
1e-10
1e-10
1e-10
1e-10
1e-10
1e-10
1e-10
1e-10
1e-10
1e-10
1e-10
1e-10
1e-10
1e-10
1e-10
1e-10
1e-10
1e-10
1e-10
1e-10
1e-10
1e-10
1e-10
1e-10
1
1e-10
1e-10
1e-10
1e-10
1e-10
1e-10
1e-10
1
1
1
1e-10
1e-10
1e-10
1e-10
1e-10
1e-10
1e-10
1e-10
1e-10
1e-10
1e-10
1e-10
1e-10
1e-10
1
1
1e-10
1e-10
1e-10
1e-10
1e-10
1e-10
1e-10
1e-10
1e-10
1e-10
1e-10
1e-10
1e-10
1e-10
1e-10
1e-10
1e-10
1e-10
1e-10
1e-10
1e-10
1e-10
1e-10
1
1
1e-10
1e-10
1e-10
1e-10
1
1
1
1
1e-10
1e-10
1e-10
1e-10
1e-10
1e-10
1e-10
1e-10
1e-10
1e-10
1e-10
1e-10
1e-10
1e-10
1e-10
1e-10
1
1
1e-10
1e-10
1e-10
1e-10
1e-10
1e-10
1e-10
1e-10
1e-10
1e-10
1e-10
1e-10
1e-10
1e-10
1e-10
1e-10
1e-10
1e-10
1e-10
1e-10
1e-10
1e-10
1e-10
1e-10
1
1e-10
1e-10
1
1
1
1e-10
1e-10
1e-10
1e-10
1e-10
1e-10
1e-10
1e-10
1e-10
1e-10
1e-10
1e-10
1e-10
1e-10
1e-10
1e-10
1e-10
1e-10
1e-10
1
1
1e-10
1e-10
1e-10
1e-10
1e-10
1e-10
1e-10
1e-10
1e-10
1e-10
1e-10
1e-10
1e-10
1e-10
1e-10
1e-10
1e-10
1e-10
1e-10
1e-10
1e-10
1e-10
1e-10
1
1
1
1
1
1e-10
1e-10
1e-10
1e-10
1e-10
1e-10
1e-10
1e-10
1e-10
1e-10
1e-10
1e-10
1e-10
1e-10
1e-10
1e-10
1e-10
1e-10
1e-10
1e-10
1
1e-10
1
1e-10
1e-10
1e-10
1
1e-10
1e-10
1e-10
1e-10
1e-10
1e-10
1e-10
1e-10
1e-10
1e-10
1e-10
1e-10
1e-10
1e-10
1e-10
1e-10
1e-10
1e-10
1e-10
1
1
1
0.538985
1e-10
1e-10
1e-10
1e-10
1e-10
1e-10
1e-10
1e-10
1e-10
1e-10
1e-10
1e-10
1e-10
1e-10
1e-10
1e-10
1e-10
1e-10
1e-10
1e-10
1
1
1e-10
1
1
1
1e-10
1
1e-10
1e-10
1e-10
1e-10
1e-10
1e-10
1e-10
1e-10
1e-10
1e-10
1e-10
1e-10
1e-10
1e-10
1e-10
1
1
1
1
1
1
1
1
1
1
1
1
1
1
1
1
1
1
1
1
1
1
1
1
1
1
1
1
1
1
1
1
1
1
1e-10
1e-10
1e-10
1e-10
1e-10
1e-10
1e-10
1e-10
1e-10
1e-10
1e-10
1e-10
1e-10
1e-10
1e-10
1e-10
1
1
1
1
1
1
1
1
1
1
1
1
1
1
1
1
1
1
1
1
1
1
1
1
1
1
1
1
1
1
1
1
1
1e-10
1e-10
1e-10
1e-10
1e-10
1e-10
1e-10
1e-10
1e-10
1e-10
1e-10
1e-10
1e-10
1e-10
1e-10
1e-10
1e-10
1e-10
1e-10
1e-10
1e-10
1
1
1e-10
1e-10
1e-10
1e-10
1e-10
1e-10
1e-10
1e-10
1e-10
1e-10
1e-10
1e-10
1e-10
1e-10
1e-10
1e-10
1e-10
1e-10
1e-10
1e-10
1e-10
1e-10
1e-10
1e-10
1e-10
0.959382
1e-10
1
1
1
1e-10
1e-10
1e-10
1e-10
1e-10
1e-10
1e-10
1e-10
1e-10
1e-10
1e-10
1e-10
1e-10
1e-10
1e-10
1e-10
1e-10
1e-10
1e-10
1
1
1e-10
1e-10
1e-10
1e-10
1e-10
1e-10
1e-10
1e-10
1e-10
1e-10
1e-10
1e-10
1e-10
1e-10
1e-10
1e-10
1e-10
1e-10
1e-10
1e-10
1e-10
1e-10
1e-10
0.85
1e-10
1e-10
0.37437
1
1
1
1e-10
1e-10
1e-10
1e-10
1e-10
1e-10
1e-10
1e-10
1e-10
1e-10
1e-10
1e-10
1e-10
1e-10
1e-10
1e-10
1e-10
1e-10
1e-10
1
1
1e-10
1e-10
1e-10
1e-10
1e-10
1e-10
1e-10
1e-10
1e-10
1e-10
1e-10
1e-10
1e-10
1e-10
1e-10
1e-10
1e-10
1e-10
1e-10
1e-10
1e-10
0.972033
1e-10
1e-10
0.665716
1
1e-10
1e-10
1
1
1e-10
1e-10
1e-10
1e-10
1e-10
1e-10
1e-10
1e-10
1e-10
1e-10
1e-10
1e-10
1e-10
1e-10
1e-10
1e-10
1e-10
1e-10
1e-10
1
1
1e-10
1e-10
1e-10
1e-10
1e-10
1e-10
1e-10
1e-10
1e-10
1e-10
1e-10
1e-10
1e-10
1e-10
1e-10
1e-10
1e-10
1e-10
1e-10
1
1e-10
0.476089
0.693178
0.668924
0.741819
0.394679
0.660919
1e-10
0.882083
1e-10
1e-10
1e-10
1e-10
1e-10
1e-10
1e-10
1e-10
1e-10
1e-10
1e-10
1e-10
1e-10
1e-10
1e-10
1e-10
1e-10
1e-10
1e-10
1e-10
1e-10
1
1e-10
1e-10
1e-10
1e-10
1e-10
1e-10
1e-10
1e-10
1e-10
1e-10
1e-10
1e-10
1e-10
1e-10
1e-10
1e-10
1e-10
1
0.37912
0.635859
0.442547
0.478228
0.83229
0.457386
0.51989
0.580866
0.469936
1e-10
1e-10
1e-10
1e-10
1e-10
1e-10
1e-10
1e-10
1e-10
1e-10
1e-10
1e-10
1e-10
1e-10
1e-10
1e-10
1e-10
1e-10
1e-10
1e-10
1e-10
1e-10
1e-10
1
1e-10
1e-10
1e-10
1e-10
1e-10
1e-10
1e-10
1e-10
1e-10
1e-10
1e-10
1e-10
1e-10
1e-10
1e-10
1
1e-10
0.310273
0.476739
1e-10
1
0.462563
0.34753
0.405086
0.373768
0.395084
1e-10
1e-10
1e-10
1e-10
1e-10
1e-10
1e-10
1e-10
1e-10
1e-10
1e-10
1e-10
1e-10
1e-10
1e-10
1e-10
1e-10
1e-10
1e-10
1e-10
1e-10
1e-10
1e-10
1e-10
1
1e-10
1e-10
1e-10
1e-10
1e-10
1e-10
1e-10
1e-10
1e-10
1e-10
1e-10
1e-10
0.933716
1
1e-10
0.294589
1e-10
1e-10
1
1e-10
0.352963
0.40962
1e-10
1e-10
1e-10
1e-10
1e-10
1e-10
1e-10
1e-10
1e-10
1e-10
1e-10
1e-10
1e-10
1e-10
1e-10
1e-10
1e-10
1e-10
1e-10
1e-10
1e-10
1e-10
1e-10
1e-10
1e-10
1e-10
1e-10
1e-10
1
0.969824
1e-10
1e-10
1e-10
1e-10
1e-10
1e-10
1e-10
1e-10
1e-10
0.935603
1e-10
1e-10
0.221105
1e-10
1.71511e-07
1
0.217635
0.64862
1e-10
1e-10
4.59287e-05
1e-10
1e-10
1e-10
1e-10
1e-10
1e-10
1e-10
1e-10
1e-10
1e-10
1e-10
1e-10
1e-10
1e-10
1e-10
1e-10
1e-10
1e-10
1e-10
1e-10
1e-10
1e-10
1e-10
1e-10
1e-10
1e-10
1e-10
1e-10
1e-10
1
1e-10
1e-10
1e-10
1e-10
1e-10
1e-10
1e-10
1e-10
1e-10
1e-10
0.224363
3.10403e-07
1e-10
1
0.13628
1e-10
1e-10
0.435414
1e-10
1e-10
1e-10
1e-10
1e-10
1e-10
1e-10
1e-10
1e-10
1e-10
1e-10
1e-10
1e-10
1e-10
1e-10
1e-10
1e-10
1e-10
1e-10
1e-10
1e-10
1e-10
1e-10
1e-10
1e-10
1e-10
1e-10
1e-10
1e-10
1e-10
1e-10
1e-10
1e-10
1e-10
1e-10
1e-10
1e-10
1e-10
1e-10
1e-10
1e-10
0.235371
0.000225638
1e-10
1
1e-10
1e-10
1e-10
1e-10
1e-10
0.547821
1e-10
1e-10
1e-10
1e-10
1e-10
1e-10
1e-10
1e-10
1e-10
1e-10
1e-10
1e-10
1e-10
1e-10
1e-10
1e-10
1e-10
1e-10
1e-10
1e-10
1e-10
1e-10
1e-10
1e-10
1e-10
1e-10
1e-10
1e-10
1e-10
1e-10
1e-10
1e-10
1e-10
1e-10
1e-10
1e-10
1e-10
1e-10
1e-10
0.927357
1e-10
1e-10
1
1e-10
1e-10
1e-10
1e-10
1e-10
1e-10
1e-10
1e-10
1e-10
1e-10
1e-10
1e-10
1e-10
1e-10
1e-10
1e-10
1e-10
1e-10
1e-10
1e-10
1e-10
1e-10
1e-10
1e-10
1e-10
1e-10
1e-10
1e-10
1e-10
1e-10
1e-10
1e-10
1e-10
1e-10
1e-10
1e-10
1e-10
1e-10
1e-10
1e-10
1e-10
1e-10
1e-10
1e-10
1e-10
1e-10
1
1e-10
1
1e-10
1e-10
1e-10
1e-10
1e-10
1e-10
1e-10
1e-10
1e-10
1e-10
1e-10
1e-10
1e-10
1e-10
1e-10
1e-10
1e-10
1e-10
1e-10
1e-10
1e-10
1e-10
1e-10
1e-10
1e-10
1e-10
1e-10
1e-10
1e-10
1e-10
1e-10
1e-10
1e-10
1e-10
1e-10
1e-10
1e-10
1e-10
1e-10
1e-10
1e-10
1e-10
1e-10
1e-10
1e-10
1e-10
1e-10
1e-10
1
1e-10
1e-10
1e-10
1e-10
1e-10
1e-10
1e-10
1e-10
1e-10
1e-10
1e-10
1e-10
1e-10
1e-10
1e-10
1e-10
1e-10
1e-10
1e-10
1e-10
1e-10
1e-10
1e-10
1e-10
1e-10
1e-10
1e-10
1e-10
1e-10
1e-10
1e-10
1e-10
1e-10
1e-10
1e-10
1e-10
1e-10
1e-10
1e-10
1e-10
1
1e-10
1e-10
1e-10
1e-10
1e-10
1e-10
1e-10
1e-10
1
0.362422
1e-10
1e-10
1e-10
1e-10
1.7298e-09
1e-10
1e-10
1e-10
1e-10
1e-10
1e-10
1e-10
1e-10
1e-10
1e-10
1e-10
1e-10
1e-10
1e-10
1e-10
1e-10
1e-10
1e-10
1e-10
1e-10
1e-10
1e-10
1e-10
1e-10
1e-10
1e-10
1e-10
1e-10
1e-10
1e-10
1e-10
1e-10
1e-10
1
1e-10
1e-10
1e-10
1e-10
1e-10
1e-10
1e-10
1e-10
1e-10
1e-10
1
1e-10
1e-10
1e-10
1.32339e-09
1e-10
1e-10
1e-10
1e-10
1e-10
1e-10
1e-10
1e-10
1e-10
1e-10
1e-10
1e-10
1e-10
1e-10
1e-10
1e-10
1e-10
1e-10
1e-10
1e-10
1e-10
1e-10
1e-10
1e-10
1e-10
1e-10
1e-10
1e-10
1e-10
1e-10
1e-10
1e-10
1
1
1e-10
1e-10
1e-10
1e-10
1e-10
1e-10
1e-10
1e-10
1e-10
1e-10
1e-10
1e-10
1
1e-10
5.5666e-09
1e-10
1e-10
1e-10
1e-10
0.0203949
1e-10
1e-10
1e-10
1e-10
1e-10
1e-10
1e-10
1e-10
1e-10
1e-10
1e-10
1e-10
1e-10
1e-10
1e-10
1e-10
1e-10
1e-10
1e-10
1e-10
1e-10
1e-10
1e-10
1e-10
1e-10
1e-10
1e-10
1
1
1e-10
1e-10
1e-10
1e-10
1e-10
1e-10
1e-10
1e-10
1e-10
1e-10
1e-10
1e-10
1
1e-10
1
1e-10
1e-10
1e-10
1e-10
0.033367
1e-10
1e-10
1e-10
1e-10
1e-10
1e-10
1e-10
1e-10
1e-10
1e-10
1e-10
1e-10
1e-10
1e-10
1e-10
1e-10
1e-10
1e-10
1e-10
1e-10
1e-10
1e-10
1e-10
1e-10
1e-10
1e-10
1
1
1e-10
1e-10
1e-10
1e-10
1e-10
1e-10
1e-10
1e-10
1e-10
1e-10
1e-10
1e-10
1e-10
1e-10
1e-10
1
1e-10
1
0.779284
3.62011e-09
0.144741
1e-10
1e-10
1e-10
1e-10
1e-10
1e-10
1e-10
1e-10
1e-10
1e-10
1e-10
1e-10
1e-10
1e-10
1e-10
1e-10
1e-10
1e-10
1e-10
1e-10
1e-10
1e-10
1e-10
1e-10
1e-10
1e-10
1
1
1e-10
1e-10
1e-10
1e-10
1e-10
1e-10
1e-10
1e-10
1e-10
1e-10
1e-10
1e-10
1e-10
1e-10
1e-10
1e-10
1e-10
1
1e-10
1
1
1e-10
3.69102e-09
1e-10
1e-10
1e-10
1
1e-10
1e-10
1e-10
1e-10
1e-10
1e-10
1e-10
1e-10
1e-10
1e-10
1e-10
1e-10
1e-10
1e-10
1e-10
1e-10
1e-10
1e-10
1e-10
1e-10
1
1
1e-10
1e-10
1e-10
1e-10
1e-10
1e-10
1e-10
1e-10
1e-10
1e-10
1e-10
1e-10
1e-10
1e-10
1e-10
1e-10
1e-10
1e-10
1e-10
1
1
1e-10
1
1e-10
0.600288
0.633489
1
1e-10
1e-10
1e-10
1e-10
1e-10
1e-10
1e-10
1e-10
1e-10
1e-10
1e-10
1e-10
1e-10
1e-10
1e-10
1e-10
1e-10
1e-10
1e-10
1e-10
1
1
1e-10
1e-10
1e-10
1e-10
1e-10
1e-10
1e-10
1e-10
1e-10
1e-10
1e-10
1e-10
1e-10
1e-10
1e-10
1e-10
1e-10
1e-10
1e-10
1e-10
1e-10
1
1
1e-10
1
1e-10
1
1e-10
1e-10
0.848099
0.767724
1e-10
1e-10
1e-10
1e-10
1e-10
1e-10
1e-10
1e-10
1e-10
1e-10
1e-10
1e-10
1e-10
1e-10
1e-10
1e-10
1
0.946932
1e-10
1e-10
1e-10
1e-10
1e-10
1e-10
1e-10
1e-10
1e-10
1e-10
1e-10
1e-10
1e-10
1e-10
1e-10
1e-10
1e-10
1e-10
1e-10
1e-10
1e-10
1e-10
1e-10
1
1
1e-10
1
1e-10
1
1
1e-10
1e-10
1e-10
1e-10
1e-10
1e-10
1e-10
1e-10
1e-10
1e-10
1e-10
1e-10
1e-10
1e-10
1e-10
1e-10
1e-10
1
1e-10
1e-10
1e-10
1e-10
1e-10
1e-10
1e-10
1e-10
1e-10
1e-10
1e-10
1e-10
1e-10
1e-10
1e-10
1e-10
1e-10
1e-10
1e-10
1e-10
1e-10
1e-10
1e-10
1e-10
1e-10
1e-10
1
1
1
1
1
1e-10
1e-10
1e-10
1e-10
1e-10
1e-10
1e-10
1e-10
1e-10
1e-10
1e-10
1e-10
1e-10
1e-10
1
1
1
1
1
1
1
1
1
1
1
1
1
1
1
1
1
1
1
1
1
1
1
1
1
1
1
1
1
1
1
1
1
0.69032
1e-10
1e-10
1e-10
1e-10
1e-10
1e-10
1e-10
1e-10
1e-10
1e-10
1e-10
1e-10
1e-10
1e-10
1e-10
1e-10
1
1
1
1
1
1
1
1
1
1
1
1
1
1
1
1
1
1
1
1
1
1
1e-10
1e-10
1e-10
1e-10
1e-10
1e-10
1e-10
1e-10
1e-10
1e-10
1
1e-10
1e-10
1e-10
1e-10
1e-10
1e-10
1e-10
1e-10
1e-10
1e-10
1e-10
1e-10
1e-10
1e-10
1e-10
1e-10
1e-10
1e-10
1e-10
1e-10
1e-10
1e-10
1e-10
1e-10
1e-10
1e-10
1e-10
1e-10
1e-10
1e-10
1e-10
1e-10
1e-10
1e-10
1e-10
1e-10
1e-10
1e-10
1e-10
1e-10
1e-10
1e-10
1e-10
1e-10
1e-10
1e-10
1e-10
1e-10
1
1e-10
1
1
1e-10
1e-10
1e-10
1e-10
1e-10
1e-10
1e-10
1e-10
1e-10
1e-10
1e-10
1e-10
1e-10
1e-10
1e-10
1e-10
1e-10
1e-10
1e-10
1e-10
1e-10
1e-10
1e-10
1e-10
1e-10
1e-10
1e-10
1e-10
1e-10
1e-10
1e-10
1e-10
1e-10
1e-10
1e-10
1e-10
1e-10
1e-10
1e-10
1e-10
1e-10
1e-10
1e-10
1e-10
1e-10
0.885065
1e-10
1e-10
1e-10
1e-10
1
1
1
1e-10
1e-10
1e-10
1e-10
1e-10
1e-10
1e-10
1e-10
1e-10
1e-10
1e-10
1e-10
1e-10
1e-10
1e-10
1e-10
1e-10
1e-10
1e-10
1e-10
1e-10
1e-10
1e-10
1e-10
1e-10
1e-10
1e-10
1e-10
1e-10
1e-10
1e-10
1e-10
1e-10
1e-10
1e-10
1e-10
1e-10
1e-10
1e-10
1e-10
1e-10
0.825705
1e-10
1e-10
1e-10
1e-10
1e-10
1e-10
1
1
1
1e-10
1e-10
1e-10
1e-10
1e-10
1e-10
1e-10
1e-10
1e-10
1e-10
1e-10
1e-10
1e-10
1e-10
1e-10
1e-10
1e-10
1e-10
1e-10
1e-10
1e-10
1e-10
1e-10
1e-10
1e-10
1e-10
1e-10
1e-10
1e-10
1e-10
1e-10
1e-10
1e-10
1e-10
1e-10
1e-10
1e-10
1e-10
1e-10
0.818481
1e-10
1e-10
1e-10
1e-10
1e-10
1e-10
1e-10
1e-10
1e-10
1
1
1e-10
1e-10
1e-10
1e-10
1e-10
1e-10
1e-10
1e-10
1e-10
1e-10
1e-10
1e-10
1e-10
1e-10
1e-10
1e-10
1e-10
1e-10
1e-10
1e-10
1e-10
1e-10
1e-10
1e-10
1e-10
1e-10
1e-10
1e-10
1e-10
1e-10
1e-10
1e-10
1e-10
1e-10
1e-10
1e-10
1e-10
1e-10
1e-10
1e-10
1e-10
1e-10
1e-10
1e-10
1e-10
1e-10
1e-10
0.519431
1e-10
0.969234
1
1
1e-10
1e-10
1e-10
1e-10
1e-10
1e-10
1e-10
1e-10
1e-10
1e-10
1e-10
1e-10
1e-10
1e-10
1e-10
1e-10
1e-10
1e-10
1e-10
1e-10
1e-10
1e-10
1e-10
1e-10
1e-10
1e-10
1e-10
1e-10
1e-10
1e-10
1e-10
1e-10
1e-10
1e-10
1e-10
1e-10
1e-10
1e-10
1e-10
1e-10
1e-10
1e-10
1e-10
1e-10
0.427712
1e-10
0.514886
1e-10
1e-10
1e-10
1
1e-10
1e-10
1e-10
1e-10
1e-10
1e-10
1e-10
1e-10
1e-10
1e-10
1e-10
1e-10
1e-10
1e-10
1e-10
1e-10
1e-10
1e-10
1e-10
1e-10
1e-10
1e-10
1e-10
1e-10
1e-10
1e-10
1e-10
1e-10
1e-10
1e-10
1e-10
1e-10
1e-10
1e-10
1e-10
1e-10
1e-10
1e-10
1e-10
0.0957468
1e-10
0.187477
0.444505
1e-10
0.520968
1e-10
0.490505
1e-10
1e-10
1e-10
1e-10
1e-10
1e-10
1e-10
1e-10
1e-10
1e-10
1e-10
1e-10
1e-10
1e-10
1e-10
1e-10
1e-10
1e-10
1e-10
1e-10
1e-10
1e-10
1e-10
1e-10
1e-10
1e-10
1e-10
1e-10
1e-10
1e-10
1e-10
1e-10
1e-10
1e-10
1e-10
1e-10
1e-10
1e-10
1e-10
1e-10
1e-10
0.178865
1e-10
0.439054
0.484342
0.0422803
0.524423
0.412321
0.405795
0.326522
1e-10
1e-10
1e-10
1e-10
1e-10
1e-10
1e-10
1e-10
1e-10
1e-10
1e-10
1e-10
1e-10
1e-10
1e-10
1e-10
1e-10
1e-10
1e-10
1e-10
1e-10
1e-10
1e-10
1e-10
1e-10
1e-10
1e-10
1e-10
1e-10
1e-10
1e-10
1e-10
1e-10
1e-10
1e-10
1e-10
1e-10
1e-10
1e-10
1e-10
0.516706
1e-10
0.34334
1e-10
0.496548
0.423376
0.459526
0.373851
0.380997
2.69101e-09
1e-10
1e-10
1e-10
1e-10
1e-10
1e-10
1e-10
1e-10
1e-10
1e-10
1e-10
1e-10
1e-10
1e-10
1e-10
1e-10
1e-10
1e-10
1e-10
1e-10
1e-10
1e-10
1e-10
1e-10
1e-10
1e-10
1e-10
1e-10
1e-10
1e-10
1e-10
1e-10
1e-10
1e-10
1e-10
1e-10
1e-10
1e-10
1e-10
0.0260188
0.31537
0.162438
0.2286
0.542503
1e-10
0.515319
0.187505
0.373574
0.380357
1e-10
1e-10
1e-10
1e-10
1e-10
1e-10
1e-10
1e-10
1e-10
1e-10
1e-10
1e-10
1e-10
1e-10
1e-10
1e-10
1e-10
1e-10
1e-10
1e-10
1e-10
1e-10
1e-10
1e-10
1e-10
1e-10
1e-10
1e-10
1e-10
1e-10
1e-10
1e-10
1e-10
1e-10
1e-10
1e-10
1e-10
1e-10
1e-10
0.00296966
1e-10
1e-10
0.4111
1e-10
0.170491
0.634648
1e-10
0.404091
0.346016
1e-10
1e-10
1e-10
1e-10
1e-10
1e-10
1e-10
1e-10
1e-10
1e-10
1e-10
1e-10
1e-10
1e-10
1e-10
1e-10
1e-10
1e-10
1e-10
1e-10
1e-10
1e-10
1e-10
1e-10
1e-10
1e-10
1e-10
1e-10
1e-10
1e-10
1e-10
1e-10
1e-10
1e-10
1e-10
1e-10
1e-10
1e-10
1e-10
1.98936e-10
1e-10
0.00489972
0.257897
1e-10
0.419497
1e-10
0.0222637
0.61586
1e-10
0.375997
1e-10
1e-10
1e-10
1e-10
1e-10
1e-10
1e-10
1e-10
1e-10
1e-10
1e-10
1e-10
1e-10
1e-10
1e-10
1e-10
1e-10
1e-10
1e-10
1e-10
1e-10
1e-10
1e-10
1e-10
1e-10
1e-10
1e-10
1e-10
1e-10
1e-10
1e-10
1e-10
1e-10
1e-10
1e-10
1e-10
1e-10
1e-10
1.36063e-09
1e-10
1e-10
0.349969
2.15426e-06
3.8525e-06
1e-10
0.491623
1e-10
1e-10
0.540021
1e-10
1e-10
1e-10
1e-10
1e-10
1e-10
1e-10
1e-10
1e-10
1e-10
1e-10
1e-10
1e-10
1e-10
1e-10
1e-10
1e-10
1e-10
1e-10
1e-10
1e-10
1e-10
1e-10
1e-10
1e-10
1e-10
1e-10
1e-10
1e-10
1e-10
1e-10
1e-10
1e-10
1e-10
1e-10
1e-10
1e-10
1e-10
1e-10
1e-10
2.29969e-10
0.407311
7.45416e-10
1e-10
4.59495e-08
3.14849e-07
1e-10
0.51387
0.323952
1e-10
0.454459
1e-10
1e-10
1e-10
1e-10
1e-10
1e-10
1e-10
1e-10
1e-10
1e-10
1e-10
1e-10
1e-10
1e-10
1e-10
1e-10
1e-10
1e-10
1e-10
1e-10
1e-10
1e-10
1e-10
1e-10
1e-10
1e-10
1e-10
1e-10
1e-10
1e-10
1e-10
1e-10
1e-10
1e-10
1e-10
1e-10
1e-10
1e-10
1e-10
0.335677
1e-10
1e-10
3.99383e-09
1e-10
4.06193e-08
1e-10
0.0934993
0.494911
0.457409
1e-10
0.372954
1e-10
1e-10
1e-10
1e-10
1e-10
1e-10
1e-10
1e-10
1e-10
1e-10
1e-10
1e-10
1e-10
1e-10
1e-10
1e-10
1e-10
1e-10
1e-10
1e-10
1e-10
1e-10
1e-10
1e-10
1e-10
1e-10
1e-10
1e-10
1e-10
1e-10
1e-10
1e-10
1e-10
1e-10
1e-10
1e-10
1e-10
1e-10
1e-10
1e-10
1.42356e-10
1e-10
3.70852e-08
1e-10
0.0333793
1e-10
1e-10
0.424345
0.53595
1e-10
0.212266
1
1e-10
1e-10
1e-10
1e-10
1e-10
1e-10
1e-10
1e-10
1e-10
1e-10
1e-10
1e-10
1e-10
1e-10
1e-10
1e-10
1e-10
1e-10
1e-10
1e-10
1e-10
1e-10
1e-10
1e-10
1e-10
1e-10
1e-10
1e-10
1e-10
1e-10
1e-10
1e-10
1e-10
1e-10
1e-10
1e-10
1e-10
1e-10
1e-10
4.28901e-08
1e-10
0.00712578
1e-10
3.42876e-10
1e-10
1e-10
8.26316e-10
0.912183
1
1e-10
1e-10
1e-10
1e-10
1e-10
1e-10
1e-10
1e-10
1e-10
1e-10
1e-10
1e-10
1e-10
1e-10
1e-10
1e-10
1e-10
1e-10
1e-10
1e-10
1e-10
1e-10
1e-10
1e-10
1e-10
1e-10
1e-10
1e-10
1e-10
1e-10
1e-10
1e-10
1e-10
1e-10
1e-10
1e-10
1e-10
1e-10
1e-10
1e-10
1e-10
1e-10
1e-10
4.72079e-10
1e-10
2.22644e-10
1e-10
1
1
1e-10
1e-10
1e-10
1e-10
1e-10
1e-10
1e-10
1e-10
1e-10
1e-10
1e-10
1e-10
1e-10
1e-10
1e-10
1e-10
1e-10
1e-10
1e-10
1e-10
1e-10
1e-10
1e-10
1e-10
1e-10
1e-10
1e-10
1e-10
1e-10
1e-10
1e-10
1e-10
1e-10
1e-10
1e-10
1e-10
1e-10
1e-10
1e-10
1e-10
1e-10
1e-10
1e-10
1e-10
1e-10
1e-10
1e-10
1
1
1e-10
1e-10
1e-10
1
1e-10
1e-10
1e-10
1e-10
1e-10
1e-10
1e-10
1e-10
1e-10
1e-10
1e-10
1e-10
1e-10
1e-10
1e-10
0.898668
1e-10
1e-10
1e-10
1e-10
1e-10
1e-10
1e-10
1e-10
1e-10
1e-10
1e-10
1e-10
1e-10
1e-10
1e-10
1e-10